     224
 i =        1, E =      -989.9706491377
  C        15.0488888130       10.0321806581        7.5017183141
  C        15.7332107796        8.8173767834        7.5013011273
  C        17.1173672460        8.8090129054        7.5008355235
  C        17.8613908032       10.0135546498        7.5007865469
  C        19.3008751102       10.0272308936        7.5003565620
  C        20.0436466977        8.8277220809        7.4999422591
  C        21.4162893345        8.8312365516        7.4996141113
  C        22.1512170592       10.0369624537        7.4996555718
  C        23.5850329342       10.0380427397        7.4994130535
  C        24.3250812563        8.8348656707        7.4991379723
  C        25.6968528203        8.8339801477        7.4990160428
  C        26.4352776803       10.0376234338        7.4991793430
  C        27.8677802895       10.0373140009        7.4991678110
  C        28.6088084024        8.8350321792        7.4990351007
  C        29.9805323958        8.8349197501        7.4991054759
  C        30.7183713732       10.0396580127        7.4993175440
  C        32.1504250656       10.0448025001        7.4994372834
  C        32.8774627542        8.8334140370        7.4993787681
  C        34.2460337516        8.8200961306        7.4995090059
  C        34.9838381474       10.0196233380        7.4997036178
  C        36.4071486274        9.9912960275        7.4998226562
  C        37.1655742381        8.8092306095        7.4997385296
  C        38.5416512931        8.8393138706        7.4998286100
  C        39.2818021040       10.0395604412        7.4999815361
  C        40.7139673520       10.0451952679        7.5000269718
  C        41.4487097823        8.8362462040        7.4998919786
  C        42.8211150259        8.8315115562        7.4998883471
  C        43.5732588983       10.0273850122        7.5000599068
  C        45.0033076359       10.0362966925        7.5000157411
  C        45.7402911210        8.8333775400        7.4998265657
  C        47.1110948445        8.8361310495        7.4997641433
  C        47.8492674317       10.0398215547        7.4999502889
  C        49.2814656523       10.0388831140        7.4998639313
  C        50.0204420091        8.8353881551        7.4995768119
  C        51.3920788197        8.8353231874        7.4994559244
  C        52.1315523644       10.0386331377        7.4996458725
  C        53.5644692177       10.0383189338        7.4994747359
  C        54.3032391854        8.8345612919        7.4990782386
  C        55.6751840852        8.8347884394        7.4988601593
  C        56.4150101388       10.0382717642        7.4990449851
  C        57.8489668820       10.0377408068        7.4987528322
  C        58.5840686069        8.8320967624        7.4982362478
  C        59.9567262451        8.8286646747        7.4978930510
  C        60.6994801890       10.0281908237        7.4980825143
  C        62.1389321203       10.0147431731        7.4976948866
  C        62.8829295027        8.8102242786        7.4970951569
  C        64.2670569223        8.8188875446        7.4967149154
  C        64.9513210623       10.0337055906        7.4969494961
  C        14.9396371644       12.4992726610        7.5021533731
  C        15.7344293995       11.2380087889        7.5016874793
  C        17.1525630448       11.2517629710        7.5012106290
  C        17.8664862555       12.4993874203        7.5011809074
  C        19.2813410117       12.4994387050        7.5007646489
  C        20.0029827834       11.2625894686        7.5003500102
  C        21.4358597785       11.2654053712        7.5000121199
  C        22.1526298406       12.4995544369        7.5000341659
  C        23.5757580583       12.4996012271        7.4997881683
  C        24.2936740696       11.2678683336        7.4995230241
  C        25.7255364706       11.2675267129        7.4993800903
  C        26.4400898522       12.4996980005        7.4995238197
  C        27.8621589185       12.4997457017        7.4994891787
  C        28.5756542798       11.2673660680        7.4993474052
  C        30.0064945675       11.2678784066        7.4994179061
  C        30.7198146658       12.4998192803        7.4996070547
  C        32.1429607069       12.4998558967        7.4997126621
  C        32.8639640675       11.2731006988        7.4996500284
  C        34.2979647690       11.2664006345        7.4997729136
  C        35.0078088065       12.4999157887        7.4999777352
  N        36.4168851315       12.4999456427        7.5000812450
  B        37.1357114870       11.2546070400        7.5000000285
  N        38.5807084108       11.2585855756        7.5000970674
  B        39.3050832405       12.4999959804        7.5002715626
  C        40.7650627209       12.5000183407        7.5003341854
  C        41.4503030837       11.2623762281        7.5001985128
  C        42.8778103256       11.2608148632        7.5002023834
  C        43.5776681079       12.5000729816        7.5003995710
  C        44.9986277032       12.5000933542        7.5003977407
  C        45.7091726287       11.2677231989        7.5002183183
  C        47.1397057640       11.2687528290        7.5001774269
  C        47.8540051645       12.5001545883        7.5003738862
  C        49.2760268620       12.5001883930        7.5003464779
  C        49.9906075972       11.2685026835        7.5000604961
  C        51.4219357938       11.2681189036        7.4999707815
  C        52.1365198425       12.5002683508        7.5001944989
  C        53.5589872560       12.5003076631        7.5000577106
  C        54.2744060116       11.2682794243        7.4996877265
  C        55.7065623018       11.2684436941        7.4994776228
  C        56.4245843621       12.5004047174        7.4997123101
  C        57.8478290390       12.5004559206        7.4994604535
  C        58.5645007803       11.2661763633        7.4989666321
  C        59.9974126573       11.2635642357        7.4986307319
  C        60.7188460387       12.5005624982        7.4988539653
  C        62.1336624706       12.5006204771        7.4985214921
  C        62.8475697927       11.2530297634        7.4979372570
  C        64.2656657489       11.2394292365        7.4975457428
  C        65.0603269341       12.5007289912        7.4977876983
  C        15.0487011972       14.9663727823        7.5025240495
  C        15.7343293986       13.7606002227        7.5020897775
  C        17.1524623939       13.7469540219        7.5016133658
  C        17.8612072907       14.9852135095        7.5015603620
  C        19.3006925799       14.9716535433        7.5011171466
  C        20.0028904566       13.7363432690        7.5007241715
  C        21.4357672896       13.7336403536        7.5003693148
  C        22.1510481986       14.9621345733        7.5003629971
  C        23.5848699876       14.9611594364        7.5000910546
  C        24.2935957973       13.7313867421        7.4998561828
  C        25.7254600034       13.7318230132        7.4997033360
  C        26.4351246748       14.9617719545        7.4998064207
  C        27.8676293087       14.9621709739        7.4997670554
  C        28.5755853197       13.7321607073        7.4996459910
  C        30.0064307336       13.7317281007        7.4996972426
  C        30.7182416528       14.9599840834        7.4998807311
  C        32.1503044888       14.9549053861        7.4999805888
  C        32.8639061895       13.7266435383        7.4999230606
  C        34.2979094621       13.7334034296        7.5000407596
  C        34.9837290508       14.9802097461        7.5002508936
  C        36.4070413989       15.0085911445        7.5003697034
  B        37.1356642871       13.7453094442        7.5002830780
  N        38.5806618008       13.7413744606        7.5003754674
  C        39.2817050594       14.9604287439        7.5005772735
  C        40.7138762418       14.9548391464        7.5006425304
  C        41.4502553700       13.7376865080        7.5005174979
  C        42.8777632663       13.7393010075        7.5005471313
  C        43.5731634402       14.9727543490        7.5007475183
  C        45.0032103732       14.9638913568        7.5007742924
  C        45.7091293740       13.7324937700        7.5006083608
  C        47.1396511618       13.7315265480        7.5006018253
  C        47.8491527552       14.9604927429        7.5008272820
  C        49.2813430810       14.9614968688        7.5008216969
  C        49.9905453859       13.7319126242        7.5005615712
  C        51.4218671684       13.7323734855        7.5005123012
  C        52.1314154571       14.9619028459        7.5007643985
  C        53.5643186430       14.9623042150        7.5006822788
  C        54.2743287094       13.7323856449        7.5003131811
  C        55.7064778869       13.7323209265        7.5001440974
  C        56.4148425021       14.9625392634        7.5004057615
  C        57.8487977112       14.9631711441        7.5002049671
  C        58.5644185853       13.7347898187        7.4996987590
  C        59.9973302681       13.7375078130        7.4994239330
  C        60.6992983321       14.9729412954        7.4996547320
  C        62.1387438912       14.9865009611        7.4993549766
  C        62.8474790250       13.7482631091        7.4987657934
  C        64.2655709374       13.7619721222        7.4984105812
  C        64.9511287497       14.9677503686        7.4986580559
  C        15.7329292746       16.1812251214        7.5024840416
  C        17.1170907981       16.1896973289        7.5020136947
  C        20.0433820111       16.1712151062        7.5010514516
  C        21.4160269096       16.1678004466        7.5006862358
  C        24.3248392411       16.1643933484        7.5001268029
  C        25.6966149534       16.1653678432        7.4999780984
  C        28.6085990254       16.1644907520        7.4999098009
  C        29.9803292998       16.1646799186        7.4999590600
  C        32.8772901586       16.1663249361        7.5001927341
  C        34.2458665962       16.1797052606        7.5003196617
  C        37.1654262596       16.1906774976        7.5005795918
  C        38.5415062774       16.1606461011        7.5006701998
  C        41.4485623546       16.1638168046        7.5008352568
  C        42.8209672406       16.1685991718        7.5008850564
  C        45.7401261882       16.1668494039        7.5009978989
  C        47.1109278505       16.1641523894        7.5010155726
  C        50.0202471401       16.1650373098        7.5010763667
  C        51.3918779513       16.1651722156        7.5010503025
  C        54.3030011916       16.1661146991        7.5009590614
  C        55.6749437206       16.1659740862        7.5008334190
  C        58.5838063366       16.1688743325        7.5004582657
  C        59.9564620027       16.1724139657        7.5002132133
  C        62.8826483402       16.1910721806        7.4995812523
  C        64.2667758042       16.1825170428        7.4992341835
  H        15.1779283056       17.1251891725        7.5028436303
  H        17.6289390308       17.1566513004        7.5020028291
  H        19.5301589759       17.1369220474        7.5013237184
  H        21.9282637464       17.1340505834        7.5006948560
  H        23.8142222362       17.1312481071        7.5002894511
  H        26.2093918503       17.1310819725        7.5000373708
  H        28.0954513796       17.1299659846        7.5000000351
  H        30.4906579250       17.1316863829        7.5000896495
  H        32.3741724922       17.1357153563        7.5002582452
  H        34.7768537689       17.1357307916        7.5004819737
  H        36.6609968155       17.1603470718        7.5006610881
  H        39.0636160257       17.1215659605        7.5008320798
  H        40.9439008751       17.1336345330        7.5009515562
  H        43.3383691539       17.1314942614        7.5010378596
  H        45.2251641647       17.1308390523        7.5011483983
  H        47.6203332452       17.1307339756        7.5011900843
  H        49.5090586401       17.1314334626        7.5012989458
  H        51.9042001381       17.1310741816        7.5012580374
  H        53.7904046158       17.1320382443        7.5012738216
  H        56.1861297209       17.1327207377        7.5010487212
  H        58.0713132929       17.1350027443        7.5008729377
  H        60.4696103764       17.1381518797        7.5004266994
  H        62.3706101168       17.1579245127        7.5000328806
  H        64.8216025902       17.1265455117        7.4994259023
  H        15.1782848604        7.8733693928        7.5013386277
  H        17.6292918768        7.8421005166        7.5005249430
  H        19.5305003387        7.8619734837        7.4999130221
  H        21.9286021032        7.8650271886        7.4993254328
  H        23.8145294931        7.8679748922        7.4990292385
  H        26.2096865834        7.8682923258        7.4988271480
  H        28.0957138861        7.8695294444        7.4988786721
  H        30.4909122700        7.8679427416        7.4990108160
  H        32.3743872905        7.8640042283        7.4992270202
  H        34.7770634780        7.8640926713        7.4994511601
  H        36.6611848197        7.8395406788        7.4996076464
  H        39.0637981772        7.8784160658        7.4997508095
  H        40.9440882989        7.8664100520        7.4997603972
  H        43.3385495654        7.8686296322        7.4997717873
  H        45.2253714664        7.8693609546        7.4996679890
  H        47.6205440611        7.8695659814        7.4995918829
  H        49.5093051356        7.8689624294        7.4994099375
  H        51.9044582634        7.8694470538        7.4992094420
  H        53.7907069268        7.8686032476        7.4989036813
  H        56.1864362658        7.8680778071        7.4985190394
  H        58.0716466026        7.8659278568        7.4980458026
  H        60.4699468798        7.8629647886        7.4974663138
  H        62.3709604103        7.8433337478        7.4968872900
  H        64.8219506152        7.8749016315        7.4962227122
  H        13.9504342214       14.9489461711        7.5029170598
  H        65.7310818462       12.5010671525        6.6105854424
  H        14.2683021335       12.4993936210        6.6153675831
  H        14.2689596847       12.4991041787        8.3894402706
  H        13.9506249170       10.0495205747        7.5021082489
  H        65.7315792873       12.5004497226        8.3846092214
  H        66.0493869651       14.9504809342        7.4983589162
  H        66.0495747099       10.0510621277        7.4966423651
     224
 i =        2, E =      -989.9769254456
  C        15.0417738298       10.0240939990        7.5017284710
  C        15.7379500160        8.8095479915        7.5012847641
  C        17.1218201976        8.8027122900        7.5008331582
  C        17.8496704747       10.0139756061        7.5007856348
  C        19.2950914792       10.0243250538        7.5003367434
  C        20.0405423467        8.8226264555        7.4999553335
  C        21.4126250619        8.8222422534        7.4996033715
  C        22.1466922088       10.0308720976        7.4996674697
  C        23.5842722738       10.0330175005        7.4994318797
  C        24.3245926669        8.8263452213        7.4991262750
  C        25.6956009465        8.8267716670        7.4990318561
  C        26.4329242212       10.0346884414        7.4991600789
  C        27.8687879749       10.0359168597        7.4991790324
  C        28.6074510290        8.8282739062        7.4990302699
  C        29.9780523300        8.8280361691        7.4991131102
  C        30.7150127016       10.0371069855        7.4993162141
  C        32.1490937707       10.0317203950        7.4994518364
  C        32.8687489481        8.8118196904        7.4993734860
  C        34.2329835640        8.8093582170        7.4995040085
  C        34.9777640557       10.0056681239        7.4997040406
  C        36.3944905235        9.9550665177        7.4998034871
  C        37.1561148202        8.7797385416        7.4997532910
  C        38.5379426097        8.8326929879        7.4998146519
  C        39.2802801580       10.0339097140        7.5000004488
  C        40.7178655161       10.0390158971        7.5000322043
  C        41.4558370405        8.8266173913        7.4998777340
  C        42.8284221365        8.8254436760        7.4999108269
  C        43.5789843786       10.0289614423        7.5000073569
  C        45.0104411129       10.0280855785        7.5000696513
  C        45.7452568711        8.8212064759        7.4997920982
  C        47.1145736366        8.8215545063        7.4997878739
  C        47.8492641886       10.0312422465        7.4999246274
  C        49.2842880664       10.0342300294        7.4998706634
  C        50.0217429822        8.8264553825        7.4995664148
  C        51.3923485916        8.8271956486        7.4994651533
  C        52.1303781668       10.0350350108        7.4996352959
  C        53.5666956097       10.0354180195        7.4994881358
  C        54.3043205076        8.8275327143        7.4990736878
  C        55.6754494474        8.8276211075        7.4988624287
  C        56.4158688999       10.0343115123        7.4990335368
  C        57.8536083950       10.0316878137        7.4987811425
  C        58.5877752302        8.8230725613        7.4982223925
  C        59.9598940626        8.8235188863        7.4979084322
  C        60.7050904357       10.0254302309        7.4980678883
  C        62.1505227406       10.0152374705        7.4977268975
  C        62.8785639607        8.8040887110        7.4971008077
  C        64.2624305812        8.8107764494        7.4967261321
  C        64.9584067723       10.0254458780        7.4969442509
  C        14.9438559609       12.4992805627        7.5021491575
  C        15.7276961610       11.2281527960        7.5016462618
  C        17.1451747591       11.2547522548        7.5012136331
  C        17.8740655486       12.4993870637        7.5011854567
  C        19.2831563267       12.4994440365        7.5007207132
  C        20.0018803995       11.2545683875        7.5003864007
  C        21.4342083071       11.2608842356        7.4999857812
  C        22.1512392573       12.4995453770        7.5000534957
  C        23.5711801414       12.4996045654        7.4998032725
  C        24.2904700285       11.2636109997        7.4994996067
  C        25.7218796947       11.2641133266        7.4994199449
  C        26.4386327412       12.4996988316        7.4995020778
  C        27.8577635764       12.4997384522        7.4995035035
  C        28.5765014438       11.2659030200        7.4993520929
  C        30.0066436139       11.2671283552        7.4994173326
  C        30.7255641860       12.4998223703        7.4996061923
  C        32.1473182558       12.4998531581        7.4997362996
  C        32.8593278554       11.2635486198        7.4996294167
  C        34.2953688422       11.2612901269        7.4997893068
  C        35.0075024392       12.4999186048        7.4999512585
  N        36.3990841771       12.4999395098        7.5000851465
  B        37.1344091506       11.2482483343        7.5000074251
  N        38.5869796967       11.2394472250        7.5000715889
  B        39.3012378842       12.4999965421        7.5002727430
  C        40.7866089016       12.5000205880        7.5003438988
  C        41.4565892048       11.2614081628        7.5001793458
  C        42.8811579707       11.2580556941        7.5002495429
  C        43.5878530498       12.5000655226        7.5003564194
  C        45.0059212759       12.5000969960        7.5004293029
  C        45.7147557839       11.2621056441        7.5001752884
  C        47.1441512066       11.2626451093        7.5001914435
  C        47.8568419556       12.5001575458        7.5003840242
  C        49.2757895867       12.5001900356        7.5003199275
  C        49.9917651883       11.2646951391        7.5000758676
  C        51.4224189127       11.2652236832        7.4999715369
  C        52.1399888486       12.5002660104        7.5001759545
  C        53.5593992292       12.5003154856        7.5000895566
  C        54.2770694642       11.2650199831        7.4996672151
  C        55.7087267712       11.2645378697        7.4995049111
  C        56.4284206098       12.5004037019        7.4996884818
  C        57.8483902334       12.5004539129        7.4994878355
  C        58.5657481708       11.2619455306        7.4989458048
  C        59.9981084371       11.2555974786        7.4986563794
  C        60.7168240973       12.5005701423        7.4988734975
  C        62.1259256226       12.5006125678        7.4985404222
  C        62.8550053671       11.2560552185        7.4979221672
  C        64.2724900805       11.2295097152        7.4975898370
  C        65.0562203271       12.5007277380        7.4977877258
  C        15.0415828865       14.9744597358        7.5025191295
  C        15.7276083037       13.7704605285        7.5020725941
  C        17.1450874933       13.7439689212        7.5015839965
  C        17.8494859868       14.9847988266        7.5015854987
  C        19.2949086646       14.9745462831        7.5010833287
  C        20.0018013960       13.7443647254        7.5007610135
  C        21.4341299263       13.7381558509        7.5003484507
  C        22.1465190673       14.9682245553        7.5003615065
  C        23.5841013447       14.9661866299        7.5001079796
  C        24.2903889034       13.7356453079        7.4998353865
  C        25.7218011957       13.7352374345        7.4997331662
  C        26.4327758640       14.9647054373        7.4997913724
  C        27.8686449996       14.9635661683        7.4997800082
  C        28.5764256358       13.7336169675        7.4996383705
  C        30.0065698784       13.7324738770        7.4997096731
  C        30.7148821307       14.9625286264        7.4998639576
  C        32.1489694909       14.9679906362        7.5000085525
  C        32.8592646493       13.7361937566        7.4998932197
  C        34.2953086773       13.7385149713        7.5000653378
  C        34.9776546109       14.9941631661        7.5002377242
  C        36.3943831752       15.0448169300        7.5003849444
  B        37.1343521434       13.7516611334        7.5002711653
  N        38.5869229853       13.7605156405        7.5003691147
  C        39.2801800851       14.9660770993        7.5005525077
  C        40.7177662257       14.9610229040        7.5006507221
  C        41.4565384743       13.7386583595        7.5004980050
  C        42.8811071882       13.7420490866        7.5005703907
  C        43.5788759965       14.9711741233        7.5007244334
  C        45.0103290570       14.9721133028        7.5008034187
  C        45.7146946084       13.7381226788        7.5005700620
  C        47.1440876977       13.7376357197        7.5006142433
  C        47.8491429028       14.9690698588        7.5008065272
  C        49.2841612276       14.9661532752        7.5008270728
  C        49.9916980645       13.7357236921        7.5005651564
  C        51.4223494094       13.7352681359        7.5005147852
  C        52.1302308516       14.9655006699        7.5007449166
  C        53.5665415914       14.9652078557        7.5006979338
  C        54.2769960788       13.7356547070        7.5002822682
  C        55.7086500519       13.7362266267        7.5001647739
  C        56.4157024878       14.9665043315        7.5004037488
  C        57.8534388921       14.9692323890        7.5001923483
  C        58.5656551869       13.7390213988        7.4997091449
  C        59.9980142788       13.7454878056        7.4993958322
  C        60.7049142119       14.9757043875        7.4996963102
  C        62.1503441983       14.9860041250        7.4993359496
  C        62.8549064791       13.7452291009        7.4987669006
  C        64.2723901606       13.7718861760        7.4984563803
  C        64.9582178877       14.9760056269        7.4986453396
  C        15.7376689892       16.1890563440        7.5024838867
  C        17.1215395724       16.1960033304        7.5019857909
  C        20.0402710304       16.1762996938        7.5010586379
  C        21.4123565208       16.1767942375        7.5006903322
  C        24.3243526681       16.1729022186        7.5001158934
  C        25.6953624960       16.1725683824        7.4999889202
  C        28.6072468975       16.1712477380        7.4999053450
  C        29.9778512110       16.1715582357        7.4999678068
  C        32.8685789350       16.1879185113        7.5001841991
  C        34.2328157670       16.1904378246        7.5003234530
  C        37.1559651941       16.2201725152        7.5005697322
  C        38.5377975141       16.1672661007        7.5006812737
  C        41.4556996013       16.1734431606        7.5008340819
  C        42.8282839284       16.1746728129        7.5008897155
  C        45.7450988366       16.1790172319        7.5009824994
  C        47.1144120103       16.1787313959        7.5010327631
  C        50.0215471622       16.1739688760        7.5010697670
  C        51.3921493164       16.1733074593        7.5010589074
  C        54.3040855103       16.1731411552        7.5009551516
  C        55.6752106399       16.1731496424        7.5008290523
  C        58.5875102196       16.1779064426        7.5004750854
  C        59.9596264490       16.1775586259        7.5001942223
  C        62.8782892539       16.1972110294        7.4995873109
  C        64.2621549445       16.1906263306        7.4992535804
  H        15.1783797893       17.1345592160        7.5028420499
  H        17.6484730600       17.1595187603        7.5019971689
  H        19.5149942262       17.1401002831        7.5013247460
  H        21.9476897372       17.1355954852        7.5006840702
  H        23.7949999700       17.1344273737        7.5002896076
  H        26.2253069363       17.1341066982        7.5000336697
  H        28.0799758563       17.1339749309        7.4999986527
  H        30.5086812789       17.1324962962        7.5000870978
  H        32.3326577247       17.1444668108        7.5002556601
  H        34.7790214827       17.1430720701        7.5004822719
  H        36.6645277944       17.2040960083        7.5006673189
  H        39.0947444569       17.1125846055        7.5008310406
  H        40.9225032511       17.1338391529        7.5009497163
  H        43.3466638717       17.1416770163        7.5010376038
  H        45.2090863884       17.1369822809        7.5011488711
  H        47.6446674195       17.1386664621        7.5011897234
  H        49.4904249790       17.1345953854        7.5012998406
  H        51.9211683958       17.1349550011        7.5012553293
  H        53.7740856641       17.1346430801        7.5012772260
  H        56.2040754142       17.1350446906        7.5010498461
  H        58.0520718937       17.1366779787        7.5008755867
  H        60.4848178066       17.1414292652        7.5004264834
  H        62.3512343824       17.1606789139        7.5000381031
  H        64.8214053032       17.1361392562        7.4994260161
  H        15.1787332676        7.8640016626        7.5013373604
  H        17.6488275416        7.8392362890        7.5005162317
  H        19.5153295051        7.8587920312        7.4999127535
  H        21.9480297987        7.8634822373        7.4993207306
  H        23.7953032046        7.8647868971        7.4990292457
  H        26.2256096019        7.8652708734        7.4988227847
  H        28.0802326790        7.8655193891        7.4988798736
  H        30.5089404730        7.8671307604        7.4990088916
  H        32.3328703962        7.8552477359        7.4992225270
  H        34.7792331634        7.8567506761        7.4994532600
  H        36.6647120499        7.7957984323        7.4996026861
  H        39.0949270035        7.8873959583        7.4997541056
  H        40.9226816870        7.8661977016        7.4997606522
  H        43.3468416447        7.8584611006        7.4997696743
  H        45.2092929573        7.8632144303        7.4996729261
  H        47.6448711842        7.8616434671        7.4995886622
  H        49.4906736077        7.8657989336        7.4994139839
  H        51.9214169327        7.8655753592        7.4992083874
  H        53.7743861398        7.8659931414        7.4989076693
  H        56.2043751198        7.8657579680        7.4985214989
  H        58.0524121471        7.8642580273        7.4980554104
  H        60.4851543588        7.8596851181        7.4974642455
  H        62.3515877929        7.8405790883        7.4968946969
  H        64.8217556866        7.8653068546        7.4962236028
  H        13.9403672132       14.9507512952        7.5029144765
  H        65.7384254256       12.5010583331        6.6195408057
  H        14.2610190581       12.4993891379        6.6244101223
  H        14.2616580825       12.4991074440        8.3803906165
  H        13.9405554116       10.0477169421        7.5021050513
  H        65.7389011314       12.5004538906        8.3756601999
  H        66.0594356719       14.9522614269        7.4983639177
  H        66.0596234514       10.0492788082        7.4966435639
     224
 i =        3, E =      -989.9781128085
  C        15.0454920852       10.0259577125        7.5016965027
  C        15.7352835304        8.8067744296        7.5012963131
  C        17.1190533081        8.8047369384        7.5008234165
  C        17.8544644458       10.0105330664        7.5007782962
  C        19.3002771661       10.0243559197        7.5003737942
  C        20.0408362846        8.8192409632        7.4999339413
  C        21.4128776374        8.8232752179        7.4996206819
  C        22.1459331590       10.0329309196        7.4996502805
  C        23.5839692678       10.0335622000        7.4994082752
  C        24.3234386069        8.8256765433        7.4991478120
  C        25.6945308038        8.8254314084        7.4990089729