     116
 i =        1, E =      -495.1215999344
  C         7.8670939347       14.9890552354        7.5006927129
  C         8.5477220624       13.7789623380        7.5014240980
  C         9.9675845662       13.7584317180        7.5005893612
  C        10.6785319967       14.9958588159        7.5000003391
  C         9.9477385019       16.2056371420        7.4998835854
  C         8.5644527082       16.2039541325        7.4999253043
  C        10.6925040966       12.5086146051        7.5004648272
  C         9.9691446858       11.2578011282        7.4997486334
  C         8.5493221433       11.2348531790        7.5003800876
  C         7.7526127010       12.5063719425        7.5068391884
  C         7.8709732113       10.0234096423        7.4976045466
  C         8.5702959852        8.8095662563        7.4974660604
  C         9.9534319751        8.8104693619        7.4987225848
  C        10.6818503516       10.0215860123        7.4989781246
  H        10.4725929175       17.1655066973        7.5000242977
  H         8.0142211451       17.1519996697        7.4997581985
  H         8.0220465209        7.8603852517        7.4970996595
  H        10.4802920247        7.8517306622        7.4995482026
  H         6.7689943346       14.9859242465        7.5014665356
  H         6.7728994007       10.0242422670        7.4967657084
  H         7.0678742152       12.5063483394        6.6345849713
  H         7.0849106642       12.5055490735        8.3924248482
  C        12.1263851045       14.9833557079        7.4997642984
  C        12.8304672240       13.7523476082        7.5003222473
  C        14.2659323546       13.7485277029        7.4995368098
  C        14.9824505350       14.9766067212        7.5005981180
  C        14.2443941555       16.1843084261        7.4997794821
  C        12.8718549507       16.1864556009        7.5001699303
  C        14.9888246441       12.5112377778        7.5003909638
  C        14.2671797877       11.2733244643        7.4996860628
  C        12.8319516162       11.2679776035        7.4996271320
  C        12.1028027660       12.5096621168        7.4997985686
  C        12.1293344461       10.0362820818        7.4991439522
  C        12.8756681597        8.8338822452        7.4994189614
  C        14.2479527698        8.8372583534        7.5000301107
  C        14.9843884546       10.0457839424        7.4999327233
  H        14.7673868715       17.1451714374        7.4999079910
  H        12.3527112284       17.1495191113        7.4999643092
  H        12.3574831641        7.8703808295        7.4994206368
  H        14.7719918671        7.8770168448        7.5005710279
  C        16.4238064386       14.9760040094        7.4996186455
  C        17.1345316326       13.7474032719        7.5005018469
  C        18.5701104774       13.7472760656        7.4998834496
  C        19.2828715757       14.9762777941        7.5000410706
  C        18.5396880021       16.1827503002        7.4999850907
  C        17.1675234894       16.1824470311        7.5001615677
  C        19.2923124859       12.5116917768        7.5001712154
  C        18.5705530835       11.2760794598        7.4998052098
  C        17.1351393224       11.2763287804        7.5003408741
  C        16.4102955103       12.5117205924        7.4996555665
  C        16.4253202446       10.0474429962        7.5000231813
  C        17.1688358982        8.8410111073        7.5001084896
  C        18.5407651073        8.8408514005        7.4999442810
  C        19.2837579811       10.0472588681        7.5001988828
  H        19.0605183048       17.1449711169        7.4999846863
  H        16.6474805246       17.1449572307        7.4999869840
  H        16.6491879213        7.8783629884        7.5000274655
  H        19.0621855418        7.8790166612        7.4999863752
  C        20.7231023942       14.9765224812        7.5000649478
  C        21.4357808413       13.7475306094        7.5000481623
  C        22.8711927453       13.7473088650        7.5000515984
  C        23.5829562999       14.9764710683        7.5000517407
  C        22.8388632272       16.1829067008        7.5000488673
  C        21.4665994651       16.1832174605        7.5000502241
  C        23.5948625899       12.5118223008        7.5000539240
  C        22.8707238626       11.2767464337        7.5000596066
  C        21.4355898322       11.2760185866        7.5000596156
  C        20.7135630213       12.5118030451        7.5000078812
  C        20.7235884230       10.0467644787        7.4999668051
  C        21.4668881051        8.8399101315        7.5000510815
  C        22.8390084211        8.8396090797        7.5000550195
  C        23.5810360299       10.0470815055        7.5000553757
  H        23.3596350281       17.1452270096        7.5000504848
  H        20.9458816066       17.1455672726        7.5000511205
  H        20.9461292243        7.8776818220        7.5000487561
  H        23.3598772873        7.8772403833        7.5000508861
  C        25.0240180149       14.9754854646        7.5000530383
  C        25.7394196576       13.7469529364        7.5000506494
  C        27.1752151847       13.7434961183        7.5000612403
  C        27.8787012957       14.9758504128        7.5001317219
  C        27.1368171018       16.1826119094        7.5000628690
  C        25.7645827970       16.1833346406        7.5000408992
  C        27.8984286958       12.5025161031        7.4999544782
  C        27.1749002408       11.2639083590        7.5000043269
  C        25.7392593393       11.2736920004        7.5000049014
  C        25.0167523823       12.5106815611        7.5000519729
  C        25.0213372625       10.0475519670        7.5000602514
  C        25.7576020148        8.8375690023        7.4999943030
  C        27.1286186173        8.8324603066        7.5000088356
  C        27.8788546843       10.0310640104        7.5005726161
  H        27.6588039001       17.1444752041        7.5000554356
  H        25.2452760020       17.1462986776        7.5000501830
  H        25.2425652113        7.8733425600        7.5000489461
  H        27.6594156656        7.8763821040        7.5000829849
  C        29.3219718355       14.9837863005        7.5000784202
  C        30.0360648980       13.7481510804        7.4994398689
  C        31.4554322843       13.7641641728        7.4985980399
  C        32.1345932860       14.9742843650        7.4993234378
  C        31.4374865462       16.1892703170        7.5000785969
  C        30.0551090192       16.1913777194        7.5001154133
  C        32.2513426787       12.4922614564        7.4931534389
  C        31.4559467946       11.2207558793        7.4996850339
  C        30.0364906726       11.2499408960        7.5003128157
  C        29.3126847520       12.5000806830        7.4995263576
  C        29.3224807279       10.0150047543        7.5005602468
  C        30.0468876646        8.7993485088        7.5013267793
  C        31.4304250003        8.7950738558        7.5025862674
  C        32.1317203987       10.0080191713        7.5024166516
  H        31.9850024273       17.1384227667        7.5002464909
  H        29.5261559381       17.1484002765        7.4999789496
  H        29.5266137145        7.8365472966        7.5004255730
  H        31.9817640416        7.8470981658        7.5029142726
  H        33.2322213964       14.9717913471        7.4985486747
  H        33.2298447828       10.0101860977        7.5032537532
  H        32.9347033743       12.4918780387        8.3662548359
  H        32.9176006071       12.4910539023        6.6067062689
     116
 i =        2, E =      -495.1219034547
  C         7.8699709701       14.9881948844        7.5005821257
  C         8.5493253965       13.7773526653        7.5017062327
  C         9.9689766703       13.7577981401        7.5006101370
  C        10.6807783150       14.9943034946        7.4998353020
  C         9.9497363234       16.2032314967        7.4998996740
  C         8.5659994809       16.2039544458        7.4999255445
  C        10.6931596511       12.5086511152        7.5003322149
  C         9.9706914948       11.2584100084        7.5001700841
  C         8.5511061185       11.2363018643        7.5000095259
  C         7.7559644159       12.5062092123        7.5068482861
  C         7.8735599406       10.0243969480        7.4978806173
  C         8.5716662208        8.8097626359        7.4974283758
  C         9.9552766141        8.8128057207        7.4986723631
  C        10.6840538096       10.0230246738        7.4989485549
  H        10.4789118842       17.1652705349        7.4999074662
  H         8.0137329210       17.1547382345        7.4997162436
  H         8.0212653498        7.8579172613        7.4968907846
  H        10.4863626940        7.8518592885        7.4993766576
  H         6.7681403717       14.9831876165        7.5013954118
  H         6.7717385083       10.0272982478        7.4969478945
  H         7.0676671592       12.5063573606        6.6324883540
  H         7.0845274112       12.5055478155        8.3944292086
  C        12.1279306095       14.9821063409        7.5005071347
  C        12.8316189693       13.7513332668        7.4991338113
  C        14.2666175488       13.7479510959        7.5013244552
  C        14.9824118815       14.9761940112        7.4987862748
  C        14.2450132647       16.1840201333        7.5005781809
  C        12.8716205072       16.1858645775        7.4995591762
  C        14.9892749470       12.5110717710        7.4989299435
  C        14.2674448848       11.2738168896        7.5002094621
  C        12.8326849595       11.2690396224        7.4993727995
  C        12.1034208823       12.5097971598        7.5004226905
  C        12.1308540629       10.0373402603        7.4993101156
  C        12.8754014361        8.8342713534        7.4994888182
  C        14.2485463868        8.8376494068        7.4999278080
  C        14.9842815234       10.0463184858        7.4998679019
  H        14.7726653333       17.1468459047        7.4998802687
  H        12.3471274669       17.1506137234        7.4999662646
  H        12.3518143942        7.8690899905        7.4993826089
  H        14.7771730360        7.8754160788        7.5005183142
  C        16.4235233950       14.9754630271        7.5011388805
  C        17.1342518940       13.7469660169        7.4989666929
  C        18.5695487014       13.7471608219        7.5006030683
  C        19.2828881660       14.9756234843        7.4998626547
  C        18.5399078926       16.1819933495        7.5001458808
  C        17.1667432718       16.1818876227        7.4996515961
  C        19.2922284482       12.5122464376        7.4996225626
  C        18.5703397145       11.2770207295        7.5006658995
  C        17.1352199646       11.2761481275        7.4993596036
  C        16.4106994578       12.5112892908        7.5011663187
  C        16.4250184488       10.0475814520        7.5003681157
  C        17.1684442041        8.8414412037        7.4999458948
  C        18.5413626910        8.8412496489        7.5002260519
  C        19.2830331956       10.0481923502        7.4996572681
  H        19.0654662795       17.1462157781        7.5000114296
  H        16.6418351125       17.1463686561        7.5000446982
  H        16.6434272528        7.8771244996        7.5000124257
  H        19.0670333495        7.8771226839        7.4999689692
  C        20.7236085531       14.9756931806        7.5000118172
  C        21.4369123083       13.7472329850        7.5000484540
  C        22.8722045472       13.7465703753        7.5000552155
  C        23.5833916551       14.9752565813        7.5000513711
  C        22.8402056902       16.1819238470        7.5000514655
  C        21.4668724648       16.1820951782        7.5000682150
  C        23.5947580576       12.5103492919        7.5000622177
  C        22.8707552547       11.2753911129        7.5000466952
  C        21.4359731884       11.2770999260        7.4999405627
  C        20.7138776752       12.5123832108        7.5001636944
  C        20.7233343019       10.0484486256        7.5002153660
  C        21.4650654912        8.8411531239        7.4999981461
  C        22.8379448883        8.8414309695        7.5000531495
  C        23.5817123425       10.0469591304        7.5000801535
  H        23.3649449752       17.1466176827        7.5000473589
  H        20.9410976132       17.1462808765        7.5000508920
  H        20.9408779915        7.8762593934        7.5000547455
  H        23.3648006196        7.8780000236        7.5000575818
  C        25.0244860194       14.9750101376        7.5000614241
  C        25.7381035836       13.7449511959        7.5000748388
  C        27.1733590718       13.7469499645        7.5000060321
  C        27.8807674211       14.9748749018        7.5001442933
  C        27.1362908529       16.1788883160        7.5001326243
  C        25.7630982676       16.1827491564        7.5000438904
  C        27.9020918861       12.5055047480        7.4997743965
  C        27.1707671544       11.2683040191        7.5003853094
  C        25.7358767486       11.2692069942        7.5000265670
  C        25.0161757556       12.5081771993        7.4999774974
  C        25.0219589116       10.0406050997        7.5000233663
  C        25.7597573677        8.8327518582        7.4999598465
  C        27.1320059383        8.8316241851        7.5004001750
  C        27.8717899451       10.0354422546        7.4999072702
  H        27.6625796848       17.1427085655        7.5000631662
  H        25.2381077581       17.1473936115        7.5000340101
  H        25.2297602419        7.8719216925        7.4999784181
  H        27.6568331192        7.8676998269        7.5000725428
  C        29.3267335514       14.9830638133        7.5000560889
  C        30.0360633771       13.7447447353        7.4994902221
  C        31.4553747763       13.7661363034        7.4983311865
  C        32.1344307105       14.9763679746        7.4994373530
  C        31.4369077680       16.1915738715        7.5000844652
  C        30.0541047064       16.1931644194        7.5001425851
  C        32.2480378251       12.4942568640        7.4931927153
  C        31.4519613029       11.2255627303        7.5000684854
  C        30.0324079878       11.2460736047        7.4994772398
  C        29.3129318127       12.4978786479        7.4995734413
  C        29.3175514709       10.0122929661        7.5012413530
  C        30.0488553974        8.8017930341        7.5010074423
  C        31.4324185495        8.7986078487        7.5026574629
  C        32.1298907884       10.0138280755        7.5021550128
  H        31.9886329765       17.1419555590        7.5002828180
  H        29.5226061116       17.1536041248        7.5000869049
  H        29.5164994951        7.8412794263        7.5006193167
  H        31.9793040147        7.8442766713        7.5031741077
  H        33.2359660320       14.9692909308        7.4986155366
  H        33.2317018808       10.0119310272        7.5030535946
  H        32.9362232595       12.4929566681        8.3675523739
  H        32.9192485385       12.4920818389        6.6055133199
     116
 i =        3, E =      -495.1220032638
  C         7.8704503043       14.9880005844        7.5007054830
  C         8.5502785707       13.7774397119        7.5015667592
  C         9.9699599384       13.7573936482        7.5005316159
  C        10.6810033005       14.9942870503        7.5001641319
  C         9.9503160283       16.2031846382        7.4998520618
  C         8.5666584603       16.2035701964        7.4998453515
  C        10.6944765900       12.5086071126        7.5008198833
  C         9.9714687429       11.2588479988        7.4998045541
  C         8.5518569425       11.2364075966        7.5004554380
  C         7.7571166935       12.5063724628        7.5068162390
  C         7.8741107248       10.0246347989        7.4977044776
  C         8.5721964792        8.8100790301        7.4975193606
  C         9.9557310921        8.8128579357        7.4985491011
  C        10.6841167309       10.0230884787        7.4992330216
  H        10.4801344604       17.1642673469        7.4998738891
  H         8.0151005317       17.1542139199        7.4996915026
  H         8.0224072075        7.8584220787        7.4968055398
  H        10.4873755497        7.8528139834        7.4992675914
  H         6.7690421097       14.9826716354        7.5013396741
  H         6.7727200145       10.0279935161        7.4970667772
  H         7.0685299597       12.5063726510        6.6328589890
  H         7.0853203962       12.5054211293        8.3939596677
  C        12.1281217279       14.9823411978        7.4992976068
  C        12.8319315784       13.7516495334        7.5009518173
  C        14.2668599059       13.7480790143        7.4986359200
  C        14.9826325158       14.9763713613        7.5012376434
  C        14.2452661679       16.1841313142        7.4994570002
  C        12.8720173165       16.1858208510        7.5003357669
  C        14.9893748702       12.5111320957        7.5011567377
  C        14.2680736450       11.2735611626        7.4992233453
  C        12.8333568616       11.2684725373        7.5000476381
  C        12.1047851423       12.5095711577        7.4994910068
  C        12.1309084933       10.0371282392        7.4992010494
  C        12.8757504050        8.8343970232        7.4994729699
  C        14.2487584832        8.8374116231        7.4999548981
  C        14.9846523937       10.0458805840        7.5002509752
  H        14.7726486376       17.1465297815        7.4999974233
  H        12.3471801321       17.1497961240        7.4999346082
  H        12.3519205976        7.8699422470        7.4993884767
  H        14.7772002418        7.8756669041        7.5004589767
  C        16.4238292344       14.9755534874        7.4989782942
  C        17.1348435365       13.7471552064        7.5012586071
  C        18.5702236500       13.7471785536        7.4993396412
  C        19.2829069358       14.9760274446        7.5003667099
  C        18.5399852418       16.1822694592        7.4998049470
  C        17.1669191857       16.1818897577        7.5004290586
  C        19.2924532634       12.5119680642        7.5005954362
  C        18.5703148867       11.2768603319        7.4994097532
  C        17.1351922059       11.2765506940        7.5008847336
  C        16.4108413605       12.5117378952        7.4988628013
  C        16.4254591224       10.0476186598        7.4996396941
  C        17.1682359633        8.8412397488        7.5002231724
  C        18.5410352551        8.8413229598        7.4998660279
  C        19.2828311072       10.0480171397        7.5004196563
  H        19.0653899394       17.1459539703        7.4999818714
  H        16.6419310229       17.1457510570        7.4999679486
  H        16.6434463729        7.8773549513        7.5000149423
  H        19.0668259696        7.8778686492        7.4999930743
  C        20.7237652244       14.9759985515        7.4999970150
  C        21.4360617322       13.7469614826        7.5000823976
  C        22.8713423751       13.7466485426        7.5000701914
  C        23.5827067019       14.9750433352        7.5000481298
  C        22.8400228328       16.1818285579        7.5000611424
  C        21.4668381481       16.1822919750        7.5000262360
  C        23.5944449021       12.5107581529        7.5000074616
  C        22.8709552043       11.2755231044        7.5000404490
  C        21.4360646019       11.2760138749        7.5001867188
  C        20.7142453328       12.5114774777        7.4998282160
  C        20.7231987443       10.0475242689        7.4998321554
  C        21.4651825929        8.8407275403        7.5001014433
  C        22.8378506487        8.8406376598        7.5000458454
  C        23.5807446201       10.0464229638        7.5000247040
  H        23.3650158869       17.1457916781        7.5000524846
  H        20.9413832416       17.1460124067        7.5000533660
  H        20.9401175041        7.8769969228        7.5000371747
  H        23.3640093942        7.8775142824        7.5000524274
  C        25.0238335280       14.9743012817        7.5000709705
  C        25.7384758357       13.7448768909        7.5000268205
  C        27.1733516203       13.7462095409        7.5000058183
  C        27.8781111946       14.9754099653        7.5001256893
  C        27.1366275663       16.1807461819        7.5001318837
  C        25.7635958574       16.1810090402        7.5000708683
  C        27.8997484919       12.5034507860        7.5000535220
  C        27.1714916074       11.2639057636        7.4998324861
  C        25.7369332340       11.2706013344        7.5001556089
  C        25.0157039199       12.5086356760        7.5000442364
  C        25.0211985027       10.0428577068        7.4999982063
  C        25.7565595087        8.8334415442        7.5001136479
  C        27.1291867500        8.8308630332        7.5000505160
  C        27.8737122985       10.0322262693        7.5006998575
  H        27.6630859234       17.1437568215        7.5000828388
  H        25.2385361348       17.1449541547        7.5000223564
  H        25.2289396271        7.8714951272        7.4999577454
  H        27.6552423999        7.8679442692        7.5001606103
  C        29.3243782230       14.9838952953        7.5001290985
  C        30.0349058776       13.7464328110        7.4993678407
  C        31.4544741907       13.7660151990        7.4984807626
  C        32.1338217428       14.9763786017        7.4993151492
  C        31.4382728482       16.1926521979        7.5001632333
  C        30.0552255602       16.1918266291        7.5001192440
  C        32.2471737252       12.4943200900        7.4932245786
  C        31.4524581662       11.2247862988        7.4994386492
  C        30.0328717298       11.2493291791        7.5003115287
  C        29.3103512173       12.4995468373        7.4991438554
  C        29.3198473621       10.0144011408        7.5002181938
  C        30.0467312493        8.8022130175        7.5015095149
  C        31.4300446331        8.7987742231        7.5023903279
  C        32.1295437062       10.0126067962        7.5024150305
  H        31.9892048270       17.1431975585        7.5003092480
  H        29.5236276090       17.1517531052        7.5001387291
  H        29.5150474040        7.8420769721        7.5006587260
  H        31.9783644911        7.8460776778        7.5032655303
  H        33.2350211191       14.9700911979        7.4986718148
  H        33.2309322219       10.0140605443        7.5029693548
  H        32.9357154758       12.4933049985        8.3671639704
  H        32.9188089124       12.4923076391        6.6060029508
     116
 i =        4, E =      -495.1220171013
  C         7.8712867516       14.9877923620        7.5006538329
  C         8.5512690911       13.7773264531        7.5015884418
  C         9.9709495234       13.7572345074        7.5009731802
  C        10.6816817278       14.9942177633        7.4996394724
  C         9.9513599286       16.2031309737        7.4998976405
  C         8.5677696355       16.2031582526        7.4998806196
  C        10.6953618795       12.5085617459        7.5002014903
  C         9.9724660515       11.2589179432        7.5002793283
  C         8.5528551225       11.2365628897        7.5002814248
  C         7.7579609839       12.5063904734        7.5068612130
  C         7.8748311734       10.0249605638        7.4979281362
  C         8.5731249142        8.8105772892        7.4973340482
  C         9.9566017507        8.8129301853        7.4986867706
  C        10.6848192039       10.0230716654        7.4989386317
  H        10.4813026108       17.1633940855        7.4997909212
  H         8.0167146888       17.1534858250        7.4996287251
  H         8.0238044840        7.8592502344        7.4967059001
  H        10.4883277877        7.8536805828        7.4991103324
  H         6.7704233705       14.9820683907        7.5013067470
  H         6.7739846040       10.0287585481        7.4971746081
  H         7.0698228847       12.5063859489        6.6329781877
  H         7.0864165076       12.5054557322        8.3937651316
  C        12.1287745987       14.9822602837        7.5006697337
  C        12.8327114604       13.7516593000        7.4988121226
  C        14.2675219516       13.7482194070        7.5015404079
  C        14.9831828015       14.9765816414        7.4987279732
  C        14.2456121591       16.1841668757        7.5005316227
  C        12.8725106777       16.1857155167        7.4994838292
  C        14.9898682378       12.5111981743        7.4984930426
  C        14.2686562733       11.2735629270        7.5007848319
  C        12.8340467199       11.2684864392        7.4990698599
  C        12.1056539080       12.5096065829        7.5008618628
  C        12.1316087917       10.0371303833        7.4996205820
  C        12.8762094554        8.8343704290        7.4994100237
  C        14.2490679248        8.8372280296        7.5001105396
  C        14.9848911104       10.0456884026        7.4993874945
  H        14.7724557921       17.1461659489        7.4999350543
  H        12.3477225912       17.1490241383        7.4999419469
  H        12.3524147471        7.8705963604        7.4993632342
  H        14.7769652572        7.8758691672        7.5004053712
  C        16.4244125070       14.9758067211        7.5012464598
  C        17.1350745291       13.7471881141        7.4986346117
  C        18.5704418238       13.7472275696        7.5010708130
  C        19.2829182380       14.9761835452        7.4994790658
  C        18.5402032460       16.1824430292        7.5003439876
  C        17.1672560506       16.1821187023        7.4995568269
  C        19.2922720984       12.5118046031        7.4992744004
  C        18.5704718952       11.2765057688        7.5008883336
  C        17.1354197642       11.2764630193        7.4989976046
  C        16.4112823485       12.5116857926        7.5015330666
  C        16.4256930114       10.0474964335        7.5007394236
  C        17.1682613500        8.8411758686        7.4998199109
  C        18.5409021004        8.8412213857        7.5002441837
  C        19.2828429924       10.0476681607        7.4996038699
  H        19.0650211672       17.1457219134        7.4999892403
  H        16.6422359998       17.1452671716        7.5000447176
  H        16.6437602930        7.8778279248        7.5000222860
  H        19.0664645397        7.8783909259        7.4999902751
  C        20.7238637555       14.9759833184        7.5002208240
  C        21.4361571165       13.7469135263        7.4999054442
  C        22.8714355498       13.7463857822        7.5000158074
  C        23.5824792413       14.9748976592        7.5000864400
  C        22.8398016404       16.1815616355        7.5000345113
  C        21.4667646500       16.1822218030        7.5000345303
  C        23.5945947239       12.5104443115        7.5000529464
  C        22.8702616278       11.2756505298        7.5000748605
  C        21.4353748556       11.2759247956        7.4998254916
  C        20.7140520416       12.5116516820        7.5004106970
  C        20.7232115743       10.0470433420        7.5002917063
  C        21.4648161193        8.8402316216        7.4999748087
  C        22.8373164682        8.8398555650        7.5000630255
  C        23.5792062244       10.0460927309        7.4999996206
  H        23.3648797212       17.1447848733        7.5000576251
  H        20.9419326261       17.1455727332        7.5000526807
  H        20.9396152247        7.8773221391        7.5000574437
  H        23.3627639870        7.8770624637        7.5000603598
  C        25.0236615218       14.9739827855        7.5000423991
  C        25.7385991981       13.7448458688        7.5000386934
  C        27.1732241807       13.7454851629        7.5000902533
  C        27.8768399656       14.9754619006        7.5001611619
  C        27.1360578872       16.1809057926        7.5001190595
  C        25.7631177274       16.1806272475        7.5000836137
  C        27.8990488305       12.5025525684        7.4995523413
  C        27.1714812296       11.2621506627        7.5003956550
  C        25.7371802592       11.2707318892        7.4998992149
  C        25.0157704943       12.5085966266        7.5000656987
  C        25.0197320067       10.0439300382        7.5001776457
  C        25.7541751604        8.8340880910        7.4999764158
  C        27.1269172030        8.8293875382        7.5003386092
  C        27.8730680929       10.0302758244        7.4999935988
  H        27.6623464771       17.1433254592        7.5001077148
  H        25.2381750821       17.1437891636        7.5000211391
  H        25.2284435449        7.8716230577        7.4999392248
  H        27.6534958120        7.8672135168        7.5001691508
  C        29.3233257970       14.9849120118        7.5000327754
  C        30.0342262751       13.7479940951        7.4992336401
  C        31.4538739871       13.7658950908        7.4984015187
  C        32.1337930487       14.9762042743        7.4993957245
  C        31.4384315398       16.1924707514        7.5001114158
  C        30.0551554168       16.1922510123        7.5002423738
  C        32.2470648079       12.4946002396        7.4931293700
  C        31.4521119553       11.2250503786        7.4999283114
  C        30.0325308698       11.2505361078        7.4994142128
  C        29.3094833613       12.5004847511        7.4996055107
  C        29.3194234968       10.0156636400        7.5010568556
  C        30.0449312660        8.8034643131        7.5010673087
  C        31.4282040921        8.7989170148        7.5027644803
  C        32.1282859634       10.0123153982        7.5019589026
  H        31.9888131556       17.1430154067        7.5003571358
  H        29.5239075353       17.1516637239        7.5002023528