8
Properties=species:S:1:pos:R:3 i=4 E=-14.8323857433 pbc="F F F"
C      -0.06805511       0.00000001       0.19991266 
H      -0.48364872       0.88708516      -0.31219712 
H      -0.48364876      -0.88708510      -0.31219715 
H      -0.48351119       0.00000001       1.22425886 
C       1.46813565      -0.00003353       0.19972047 
H       1.88357804       0.88710229       0.71186337 
H       1.88357801       0.00000533      -0.82463315 
H       1.88378616      -0.88707418       0.71185379 
