       8
 i =        4, E =       -14.8366303055
  C        -0.0614605913       -0.0000283028        0.1998986208
  H        -0.4685871093        0.8911492201       -0.3145561007
  H        -0.4686001947       -0.8911910202       -0.3145669378
  H        -0.4684275976       -0.0000115295        1.2289722468
  C         1.4614639022        0.0000205080        0.1997523682
  H         1.8686456684        0.8911808135        0.7142088165
  H         1.8685029440        0.0000157251       -0.8293045877
  H         1.8686813768       -0.8911334769        0.7142001255
