     224
 i =       24, E =      -994.0697034980
  C        15.0176123112       10.0173889149        7.5013578150
  C        15.7151017600        8.8024369741        7.5009907420
  C        17.0982854133        8.8044599366        7.5005971509
  C        17.8260526821       10.0143173578        7.5005000737
  C        19.2717722175       10.0268289885        7.5001532427
  C        20.0142896706        8.8229131388        7.4998772664
  C        21.3866571868        8.8250283985        7.4996169985
  C        22.1216165374       10.0336296018        7.4997404106
  C        23.5609624765       10.0344977701        7.4995395323
  C        24.3020670245        8.8274485757        7.4992550450
  C        25.6744724151        8.8275557994        7.4991681579
  C        26.4147738650       10.0342251128        7.4993713108
  C        27.8538418886       10.0339017674        7.4993895991
  C        28.5982892685        8.8287263053        7.4991727229
  C        29.9724478814        8.8317783195        7.4992473907
  C        30.7121721468       10.0372901029        7.4994342632
  C        32.1527562220       10.0394095547        7.4995330335
  C        32.8954349334        8.8370957234        7.4995004277
  C        34.2746473536        8.8396202200        7.4995385367
  C        35.0048441641       10.0406645959        7.4997863632
  C        36.4401453196       10.0642391271        7.4997699220
  C        37.1710010582        8.8557554116        7.4998443223
  C        38.5363596420        8.8557523684        7.4998382592
  C        39.2673091642       10.0642363031        7.4999669609
  C        40.7026905573       10.0407848948        7.4999050989
  C        41.4329968243        8.8398498815        7.4998918356
  C        42.8122868711        8.8374450721        7.4998643422
  C        43.5550463343       10.0397276414        7.4999656957
  C        44.9957337184       10.0377040830        7.4999481552
  C        45.7356547431        8.8323042186        7.4998269196
  C        47.1099206879        8.8291831462        7.4997804975
  C        47.8546168923       10.0342295570        7.4998919411
  C        49.2937583984       10.0345179110        7.4998357483
  C        50.0350835900        8.8280913644        7.4996469776
  C        51.4076746528        8.8278785406        7.4994973730
  C        52.1490568124       10.0349567873        7.4997262570
  C        53.5880098930       10.0353808836        7.4995070487
  C        54.3285558988        8.8284013374        7.4992158647
  C        55.7006735464        8.8286913029        7.4990700104
  C        56.4414907250       10.0357895702        7.4992004085
  C        57.8808956643       10.0347497518        7.4990429373
  C        58.6159420191        8.8261190797        7.4985178299
  C        59.9883138734        8.8241132618        7.4983181500
  C        60.7308377111       10.0279842851        7.4986153790
  C        62.1766252111       10.0154840371        7.4982580093
  C        62.9046267920        8.8057352622        7.4977591640
  C        64.2878593811        8.8039300534        7.4973022596
  C        64.9851338645       10.0189559312        7.4975812972
  C        14.9019375939       12.4993200882        7.5017099681
  C        15.6956447047       11.2288325735        7.5012427016
  C        17.1146604008       11.2503030516        7.5008497227
  C        17.8373147495       12.4993993412        7.5008118452
  C        19.2467293172       12.4994320283        7.5004848771
  C        19.9736666276       11.2579122001        7.5002449664
  C        21.4068934040       11.2621264543        7.4999497529
  C        22.1269939674       12.4995047228        7.5000454685
  C        23.5471379774       12.4995425127        7.4999377543
  C        24.2692625658       11.2638018384        7.4996642342
  C        25.7027608558       11.2643688514        7.4996188790
  C        26.4204790321       12.4996232609        7.4997239907
  C        27.8424732370       12.4996653581        7.4997032680
  C        28.5616034074       11.2647583903        7.4995304675
  C        29.9955696694       11.2677507041        7.4996412236
  C        30.7065692027       12.4997517780        7.4997165644
  C        32.1368050972       12.4997945593        7.4998141852
  C        32.8578161005       11.2757276200        7.4997338543
  C        34.2968016969       11.2778117469        7.4997290089
  C        35.0073378622       12.4998787947        7.4999382854
  C        37.1487105037       11.2864552504        7.4999553274
  C        38.5588428481       11.2864838788        7.4999420369
  N        39.2909183417       12.4999977616        7.5000762716
  C        40.7002019016       12.5000360353        7.5001179480
  C        41.4107529631       11.2779840882        7.5000388914
  C        42.8498133364       11.2760184950        7.5000650040
  C        43.5707901228       12.5001138044        7.5001514461
  C        45.0012360446       12.5001538092        7.5002533419
  C        45.7124208288       11.2682065058        7.5000465105
  C        47.1465686390       11.2652581578        7.5001063513
  C        47.8655493543       12.5002332569        7.5001803446
  C        49.2878542800       12.5002732826        7.5002600660
  C        50.0053714070       11.2648280011        7.4999836780
  C        51.4388937055       11.2644280720        7.4998867155
  C        52.1586873055       12.5003541003        7.5001316334
  C        53.5793382634       12.5003936424        7.5000267140
  C        54.2991796024       11.2648930247        7.4997432609
  C        55.7326681452       11.2647702932        7.4996148061
  C        56.4550637586       12.5004704492        7.4998104392
  C        57.8749711546       12.5005066866        7.4996595057
  C        58.5955418721       11.2630924668        7.4992850895
  C        60.0287767807       11.2590136221        7.4990458875
  C        60.7556782604       12.5005772512        7.4993205507
  C        62.1650421272       12.5006085383        7.4990139645
  C        62.8878673578       11.2515415263        7.4986080837
  C        64.3068675095       11.2302507993        7.4980895264
  C        65.1005171809       12.5006843787        7.4983048967
  C        15.0174800853       14.9812528668        7.5020073864
  C        15.6955770331       13.7698479013        7.5016105420
  C        17.1145940648       13.7484562651        7.5011464086
  C        17.8259190627       14.9844762416        7.5011444091
  C        19.2716386144       14.9720311550        7.5008148192
  C        19.9735993803       13.7409863776        7.5005174985
  C        21.4068255580       13.7368430962        7.5002980042
  C        22.1214826081       14.9653766081        7.5002940064
  C        23.5608273574       14.9645847973        7.5001508183
  C        24.2691945702       13.7353210537        7.4999352080
  C        25.7026911865       13.7348350985        7.4998773295
  C        26.4146340096       14.9650189325        7.4999497581
  C        27.8537009599       14.9654277842        7.4998414245
  C        28.5615333358       13.7346133279        7.4998439189
  C        29.9954990474       13.7317086785        7.4998430975
  C        30.7120309580       14.9622111035        7.4999390211
  C        32.1526151553       14.9601792596        7.5000352806
  C        32.8577470342       13.7239025108        7.4999047833
  C        34.2967331818       13.7219041133        7.5000005607
  C        35.0047070056       14.9590924293        7.5001262464
  C        36.4400106433       14.9356014291        7.5002265645
  C        37.1486439085       13.7134244175        7.5001182331
  C        38.5587763115       13.7134719958        7.5001746164
  C        39.2671763864       14.9357579813        7.5003785393
  C        40.7025562564       14.9592872676        7.5004410860
  C        41.4106863909       13.7221266991        7.5002761017
  C        42.8497465772       13.7241703894        7.5003646844
  C        43.5549119281       14.9604996608        7.5005534027
  C        44.9955992097       14.9626035646        7.5005703573
  C        45.7123538125       13.7321410345        7.5004145110
  C        47.1465013985       13.7351696680        7.5004256618
  C        47.8544812708       14.9662381083        7.5006982367
  C        49.2936234941       14.9660317033        7.5006562955
  C        50.0053038720       13.7357603356        7.5003925600
  C        51.4388269540       13.7362415777        7.5003952440
  C        52.1489228016       14.9657525817        7.5006251935
  C        53.5878768727       14.9654090755        7.5005944400
  C        54.2991131727       13.7359348111        7.5002472000
  C        55.7326033026       13.7361344667        7.5001776983
  C        56.4413616344       14.9651535893        7.5003885103
  C        57.8807673722       14.9662668255        7.5002634152
  C        58.5954766698       13.7379593627        7.4999142402
  C        60.0287122391       13.7421074303        7.4997173169
  C        60.7307095836       14.9731738605        7.4998779593
  C        62.1764971860       14.9857376859        7.4996771381
  C        62.8878040882       13.7497130898        7.4992118725
  C        64.3068031900       13.7710797702        7.4988497396
  C        64.9850074934       14.9824119577        7.4989743262
  C        15.7149036185       16.1962455008        7.5020005683
  C        17.0980875283       16.1942981461        7.5015484038
  C        20.0140941840       16.1759829045        7.5007986359
  C        21.3864607149       16.1739384998        7.5005827081
  C        24.3018624426       16.1716742386        7.5001025194
  C        25.6742665369       16.1716455187        7.4999937575
  C        28.5980766962       16.1706470565        7.4999775736
  C        29.9722353820       16.1676774978        7.4999602313
  C        32.8952251103       16.1625364000        7.5001443913
  C        34.2744387914       16.1600930457        7.5002388271
  C        37.1708018490       16.1441252227        7.5004079139
  C        38.5361605892       16.1442019539        7.5004826513
  C        41.4327973027       16.1602620050        7.5006855845
  C        42.8120869874       16.1627417560        7.5007364725
  C        45.7354527565       16.1680452496        7.5008789974
  C        47.1097181379       16.1712431130        7.5008406090
  C        50.0348818552       16.1725006005        7.5009398300
  C        51.4074729427       16.1727898434        7.5009116313
  C        54.3283598076       16.1724293886        7.5008277803
  C        55.7004784470       16.1722135661        7.5007685571
  C        58.6157533523       16.1749354995        7.5004557547
  C        59.9881261953       16.1770104225        7.5003072424
  C        62.9044365444       16.1955207834        7.4997541649
  C        64.2876692934       16.1973984543        7.4994315862
  H        15.1656666981       17.1474923276        7.5023696336
  H        17.6306519240       17.1531040653        7.5015755922
  H        19.4895202634       17.1392556974        7.5010298973
  H        21.9146189168       17.1352111556        7.5006162607
  H        23.7763893798       17.1344428830        7.5001731110
  H        26.2005205156       17.1342343943        7.4999989494
  H        28.0746214695       17.1346261692        7.4999760563
  H        30.4978613740       17.1308080904        7.5000159520
  H        32.3725430724       17.1265827017        7.5002409171
  H        34.7974362776       17.1236561963        7.5003467439
  H        36.6327433604       17.0982796775        7.5005137020
  H        39.0740370804       17.0984557471        7.5006482812
  H        40.9096791818       17.1237700555        7.5008414452
  H        43.3345691531       17.1268956908        7.5009426976
  H        45.2097363888       17.1311372979        7.5010169733
  H        47.6329747268       17.1353465217        7.5010859564
  H        49.5087619363       17.1351972563        7.5011539812
  H        51.9332038863       17.1355273663        7.5011294900
  H        53.8025238963       17.1351233203        7.5011210709
  H        56.2260301637       17.1349579953        7.5009734958
  H        58.0876625235       17.1362319728        7.5007430469
  H        60.5126575128       17.1403275441        7.5004374897
  H        62.3720509817       17.1544291745        7.5001078632
  H        64.8370333233       17.1485769746        7.4994950185
  H        15.1659177998        7.8511596379        7.5011000000
  H        17.6309013009        7.8456827939        7.5003503674
  H        19.4897653763        7.8596135577        7.4998076272
  H        21.9148669267        7.8637840855        7.4994199832
  H        23.7766478254        7.8646507010        7.4990741172
  H        26.2007817735        7.8649973335        7.4989356930
  H        28.0748900556        7.8647169422        7.4990004847
  H        30.4981317818        7.8686796908        7.4990738877
  H        32.3728078040        7.8730199044        7.4993590659
  H        34.7977011452        7.8760880787        7.4995149043
  H        36.6329939143        7.9015722783        7.4997666975
  H        39.0742872022        7.9015274209        7.4998561076
  H        40.9099304354        7.8763136084        7.4998086003
  H        43.3348203856        7.8733187471        7.4998311558
  H        45.2099923786        7.8691823286        7.4997199390
  H        47.6332295685        7.8651078180        7.4996785829
  H        49.5090182250        7.8653644937        7.4995093334
  H        51.9334576249        7.8651691330        7.4993544884
  H        53.8027730800        7.8656781404        7.4990512136
  H        56.2262764775        7.8659745779        7.4987832937
  H        58.0879015513        7.8647948124        7.4982653413
  H        60.5128934501        7.8608221849        7.4978936716
  H        62.3722906272        7.8467992523        7.4975141401
  H        64.8372745182        7.8527810736        7.4968022660
  H        13.9167876443       14.9762618179        7.5024205193
  H        65.7792379891       12.5009442587        6.6171709476
  H        14.2225701505       12.4994153409        6.6210853100
  H        14.2232696916       12.4991886460        8.3828795694
  H        13.9169196781       10.0223213920        7.5017188253
  H        65.7798143784       12.5004586535        8.3789861075
  H        66.0857099475       14.9772143086        7.4986545028
  H        66.0858360531       10.0242106144        7.4971687503
  N        36.4166429791       12.4999198490        7.4999512239
