     224
 i =        1, E =      -994.0662442060
  C        15.0497406341       10.0323846926        7.5017167040
  C        15.7327601177        8.8160030823        7.5013012759
  C        17.1168090201        8.8090902425        7.5008349388
  C        17.8614016453       10.0128266196        7.5007861238
  C        19.3014669526       10.0265953482        7.5003575228
  C        20.0435945677        8.8263762239        7.4999412473
  C        21.4160534999        8.8304077844        7.4996147484
  C        22.1506114070       10.0365356538        7.4996549669
  C        23.5849159294       10.0366404710        7.4994120691
  C        24.3249216709        8.8328851004        7.4991387146
  C        25.6968549067        8.8328037149        7.4990155341
  C        26.4353545995       10.0368241248        7.4991802274
  C        27.8688960212       10.0358066976        7.4991677429
  C        28.6092593268        8.8324335001        7.4990353993
  C        29.9821264237        8.8362979517        7.4991052919
  C        30.7225554591       10.0394127254        7.4993183858
  C        32.1575762205       10.0426299583        7.4994375902
  C        32.8930372454        8.8372046608        7.4993812257
  C        34.2689516934        8.8349735271        7.4995124811
  C        35.0085576765       10.0324629186        7.4997073431
  C        36.4417259213       10.0598843349        7.4998342947
  C        37.1741993983        8.8514144638        7.4997421429
  C        38.5431237684        8.8513938982        7.4998303048
  C        39.2755853407       10.0598697715        7.4999838882
  C        40.7087867420       10.0325629829        7.5000257638
  C        41.4484615796        8.8350854222        7.4998919718
  C        42.8243804091        8.8373775585        7.4998881468
  C        43.5598549121       10.0428003607        7.5000648914
  C        44.9948866579       10.0395625833        7.5000131273
  C        45.7355798402        8.8366153591        7.4998293739
  C        47.1084793523        8.8326787831        7.4997620089
  C        47.8484515659       10.0362267604        7.4999511056
  C        49.2817511036       10.0375121981        7.4998629778
  C        50.0209402612        8.8339081533        7.4995775264
  C        51.3926536637        8.8336012169        7.4994552488
  C        52.1319218683       10.0374765207        7.4996464675
  C        53.5651834691       10.0376986141        7.4994739600
  C        54.3033662794        8.8333751799        7.4990779356
  C        55.6751324115        8.8340789551        7.4988602855
  C        56.4151592037       10.0377671402        7.4990455972
  C        57.8494627797       10.0374421359        7.4987518258
  C        58.5842227156        8.8313929363        7.4982371027
  C        59.9566791511        8.8274873997        7.4978921858
  C        60.6986569979       10.0278082379        7.4980843307
  C        62.1387580876       10.0140713702        7.4976942750
  C        62.8834543658        8.8103700733        7.4970959412
  C        64.2675259828        8.8173592310        7.4967155801
  C        64.9504937893       10.0337769831        7.4969507909
  C        14.9381815270       12.4992716812        7.5021510204
  C        15.7341274214       11.2386145096        7.5016884611
  C        17.1521514351       11.2508140082        7.5012093520
  C        17.8655437721       12.4993884210        7.5011797125
  C        19.2797600231       12.4994385253        7.5007667226
  C        20.0021570422       11.2623958882        7.5003487653
  C        21.4349671527       11.2649581976        7.5000138361
  C        22.1514661732       12.4995549912        7.5000335309
  C        23.5745138319       12.4996013532        7.4997879761
  C        24.2924824831       11.2672093314        7.4995248346
  C        25.7246139830       11.2669425923        7.4993788079
  C        26.4382364243       12.4996976744        7.4995253897
  C        27.8614065223       12.4997464667        7.4994886967
  C        28.5759417330       11.2672584680        7.4993471652
  C        30.0080936836       11.2687503639        7.4994194182
  C        30.7192658287       12.4998191809        7.4996068030
  C        32.1467478876       12.4998555612        7.4997116391
  C        32.8679818975       11.2748774475        7.4996519730
  C        34.3041215782       11.2698678305        7.4997722918
  C        35.0043952395       12.4999150830        7.4999763932
  C        37.1509873825       11.2854135191        7.5000023280
  C        38.5663709560       11.2854573909        7.5000991807
  N        39.2989162552       12.4999943679        7.5002622756
  C        40.7129435458       12.5000181645        7.5003234655
  C        41.4132314192       11.2699726087        7.5001985613
  C        42.8493853507       11.2750265517        7.5002015542
  C        43.5704681098       12.5000731523        7.5004008164
  C        44.9979862718       12.5000936634        7.5003963814
  C        45.7091543692       11.2690355164        7.5002196854
  C        47.1412829304       11.2676852023        7.5001771357
  C        47.8555751582       12.5001538995        7.5003732423
  C        49.2786347323       12.5001882772        7.5003484834
  C        49.9917587752       11.2675521134        7.5000591035
  C        51.4232816855       11.2676021661        7.4999708262
  C        52.1379254903       12.5002681714        7.5001950748
  C        53.5602621455       12.5003073659        7.5000559510
  C        54.2751401854       11.2677156421        7.4996886403
  C        55.7071270665       11.2680011348        7.4994772142
  C        56.4250946843       12.5004053667        7.4997139626
  C        57.8479679964       12.5004567407        7.4994591388
  C        58.5648688381       11.2659331399        7.4989689410
  C        59.9976918639       11.2634885372        7.4986309245
  C        60.7201160590       12.5005614668        7.4988531577
  C        62.1343582097       12.5006205294        7.4985217223
  C        62.8479673070       11.2521013502        7.4979396450
  C        64.2660214503       11.2399840549        7.4975451607
  C        65.0618711041       12.5007288637        7.4977901500
  C        15.0495533466       14.9661692252        7.5025231824
  C        15.7340260694       13.7599930280        7.5020897082
  C        17.1520493481       13.7479039358        7.5016138102
  C        17.8612176735       14.9859412803        7.5015577029
  C        19.3012840891       14.9722896892        7.5011181809
  C        20.0020630361       13.7365372003        7.5007221239
  C        21.4348729500       13.7340882489        7.5003707025
  C        22.1504440300       14.9625595844        7.5003634184
  C        23.5847538537       14.9625619944        7.5000900632
  C        24.2924044133       13.7320449970        7.4998571344
  C        25.7245379706       13.7324070717        7.4997025610
  C        26.4352011641       14.9625720249        7.4998069856
  C        27.8687448661       14.9636776966        7.4997670683
  C        28.5758742770       13.7322692675        7.4996466399
  C        30.0080307963       13.7308558029        7.4996971227
  C        30.7224258124       14.9602298786        7.4998818220
  C        32.1574556695       14.9570781344        7.4999807216
  C        32.8679244218       13.7248661586        7.4999250673
  C        34.3040674168       13.7299357144        7.5000391535
  C        35.0084484293       14.9673714301        7.5002517733
  C        36.4416216099       14.9400029267        7.5003645150
  C        37.1509437502       13.7145037045        7.5002796881
  C        38.5663282769       13.7145008115        7.5003726219
  C        39.2754889267       14.9401188354        7.5005755864
  C        40.7086947773       14.9674707228        7.5006445148
  C        41.4131854867       13.7300889973        7.5005154774
  C        42.8493400164       13.7250904739        7.5005419007
  C        43.5597622290       14.9573402350        7.5007456919
  C        44.9947914730       14.9606248109        7.5007716629
  C        45.7091120082       13.7311810454        7.5006089820
  C        47.1412301548       13.7325941380        7.5006007246
  C        47.8483373898       14.9640880068        7.5008287049
  C        49.2816294414       14.9628678403        7.5008209587
  C        49.9916962063       13.7328627213        7.5005605916
  C        51.4232132098       13.7328906405        7.5005112172
  C        52.1317853515       14.9630589417        7.5007650613
  C        53.5650341939       14.9629249716        7.5006812614
  C        54.2750618716       13.7329487706        7.5003149354
  C        55.7070420445       13.7327641484        7.5001432090
  C        56.4149918720       14.9630440544        7.5004051259
  C        57.8492937196       14.9634701120        7.5002055990
  C        58.5647877116       13.7350339053        7.4996985694
  C        59.9976105220       13.7375824047        7.4994258122
  C        60.6984735540       14.9733241502        7.4996525690
  C        62.1385687523       14.9871719440        7.4993569805
  C        62.8478764388       13.7491918955        7.4987665688
  C        64.2659273372       13.7614175111        7.4984093283
  C        64.9503025273       14.9676797991        7.4986605396
  C        15.7324797759       16.1825990874        7.5024831828
  C        17.1165330627       16.1896200140        7.5020141806
  C        20.0433306111       16.1725605889        7.5010516451
  C        21.4157921049       16.1686274471        7.5006858191
  C        24.3246792975       16.1663737758        7.5001276669
  C        25.6966159656       16.1665440089        7.4999779145
  C        28.6090499479       16.1670884756        7.4999096924
  C        29.9819231143       16.1633017186        7.4999589419
  C        32.8928644753       16.1625350837        7.5001941058
  C        34.2687847057       16.1648288494        7.5003192422
  C        37.1740532710       16.1484936306        7.5005753388
  C        38.5429795953       16.1485663368        7.5006664294
  C        41.4483129930       16.1649782011        7.5008351378
  C        42.8242318996       16.1627319065        7.5008846883
  C        45.7354145678       16.1636123239        7.5009982688
  C        47.1083113664       16.1676036179        7.5010153130
  C        50.0207447338       16.1665180552        7.5010773445
  C        51.3924526666       16.1668935904        7.5010504675
  C        54.3031285298       16.1673016235        7.5009589624
  C        55.6748919962       16.1666839116        7.5008338061
  C        58.5839601693       16.1695783102        7.5004579676
  C        59.9564143774       16.1735924165        7.5002149082
  C        62.8831730405       16.1909258989        7.4995813584
  C        64.2672446903       16.1840459766        7.4992334210
  H        15.1775118919       17.1271655813        7.5028440568
  H        17.6309459501       17.1558838656        7.5020018376
  H        19.5276813787       17.1375961676        7.5013241850
  H        21.9307784358       17.1341377554        7.5006940931
  H        23.8109674138       17.1324075502        7.5002895830
  H        26.2120993048       17.1317316783        7.5000370559
  H        28.0921087593       17.1317800642        7.5000001964
  H        30.4925927776       17.1310512259        7.5000894831
  H        32.3765322350       17.1276976615        7.5002576800
  H        34.7778645153       17.1323408777        7.5004814973
  H        36.6592614416       17.1147919865        7.5006550848
  H        39.0577473543       17.1148828854        7.5008314227
  H        40.9392654359       17.1325379514        7.5009512019
  H        43.3405907492       17.1278967476        7.5010369309
  H        45.2245574930       17.1312488713        7.5011482501
  H        47.6250383195       17.1323780137        7.5011903304
  H        49.5061065208       17.1319471435        7.5012988403
  H        51.9072258173       17.1322358302        7.5012579500
  H        53.7876364494       17.1324587239        7.5012743660
  H        56.1884202329       17.1327735802        7.5010484692
  H        58.0689408681       17.1350583991        7.5008732789
  H        60.4719639213       17.1387177224        7.5004262396
  H        62.3687275190       17.1571856210        7.5000331959
  H        64.8221914245       17.1286467954        7.4994266865
  H        15.1778679696        7.8713927971        7.5013384238
  H        17.6312991752        7.8428681839        7.5005242824
  H        19.5280229301        7.8612987746        7.4999134070
  H        21.9311179149        7.8649397377        7.4993247969
  H        23.8112743565        7.8668157901        7.4990291008
  H        26.2123947004        7.8676432044        7.4988267249
  H        28.0923703877        7.8677146605        7.4988782954
  H        30.4928476473        7.8685777641        7.4990110642
  H        32.3767461813        7.8720221872        7.4992283069
  H        34.7780739020        7.8674826493        7.4994515540
  H        36.6594475365        7.8850953437        7.4996124863
  H        39.0579299756        7.8850994337        7.4997509445
  H        40.9394525103        7.8675072933        7.4997605334
  H        43.3407710477        7.8722261018        7.4997726318
  H        45.2247657714        7.8689525264        7.4996675943
  H        47.6252493225        7.8679220093        7.4995918077
  H        49.5063538927        7.8684494774        7.4994099353
  H        51.9074837239        7.8682856020        7.4992091429
  H        53.7879390689        7.8681829772        7.4989042002
  H        56.1887262730        7.8680247356        7.4985190397
  H        58.0692746186        7.8658722629        7.4980466568
  H        60.4722999371        7.8623998489        7.4974659362
  H        62.3690778329        7.8440724304        7.4968882783
  H        64.8225391744        7.8727999503        7.4962217095
  H        13.9507960913       14.9489169769        7.5029166159
  H        65.7322330266       12.5010667176        6.6103955760
  H        14.2672171853       12.4993940826        6.6152338030
  H        14.2678769832       12.4991047781        8.3895723225
  H        13.9509855271       10.0495493396        7.5021079594
  H        65.7327327704       12.5004497247        8.3848011007
  H        66.0490729154       14.9504376097        7.4983587984
  H        66.0492603410       10.0511044873        7.4966427114
  N        36.4184282751       12.4999461648        7.5000789933
     224
 i =        2, E =      -994.0684537319
  C        15.0430231740       10.0247681503        7.5017262326
  C        15.7370995687        8.8085150094        7.5012858520
  C        17.1208806445        8.8031094222        7.5008327733
  C        17.8503309528       10.0131515285        7.5007852460
  C        19.2960133378       10.0236380225        7.5003388214
  C        20.0404242893        8.8211304013        7.4999535277
  C        21.4123846746        8.8219574973        7.4996046511
  C        22.1461609181       10.0307849028        7.4996662509
  C        23.5840361916       10.0328566631        7.4994296243
  C        24.3240027675        8.8255412613        7.4991281449
  C        25.6953339985        8.8260216620        7.4990301266
  C        26.4323960279       10.0340315383        7.4991628342
  C        27.8693182321       10.0343860954        7.4991778551
  C        28.6102583469        8.8278943456        7.4990315952
  C        29.9832649292        8.8286105980        7.4991121731
  C        30.7223304802       10.0350775532        7.4993173507
  C        32.1616343078       10.0363087004        7.4994526377
  C        32.9031225464        8.8333074642        7.4993789720
  C        34.2820845408        8.8347616050        7.4995134769
  C        35.0085939938       10.0397118586        7.4997106907
  C        36.4442765265       10.0636775300        7.4998174713
  C        37.1763620954        8.8542496751        7.4997612828
  C        38.5408168148        8.8542413518        7.4998190695
  C        39.2730453107       10.0635836461        7.5000009465
  C        40.7087505745       10.0396495600        7.5000312609
  C        41.4354913309        8.8348717227        7.4998816765
  C        42.8144451586        8.8335717382        7.4999093285
  C        43.5557948105       10.0366149532        7.5000149283
  C        44.9950093953       10.0354815662        7.5000621791
  C        45.7339080421        8.8289610588        7.4997982506
  C        47.1068639664        8.8280257333        7.4997851407
  C        47.8476152251       10.0344208870        7.4999285773
  C        49.2841420703       10.0334294811        7.4998693066
  C        50.0217503306        8.8255929545        7.4995679598
  C        51.3928437537        8.8254810179        7.4994636717
  C        52.1309973657       10.0336735859        7.4996365352
  C        53.5675395058       10.0347620264        7.4994864355
  C        54.3051310712        8.8268868803        7.4990736639
  C        55.6761575373        8.8267182242        7.4988621909
  C        56.4158719338       10.0340562331        7.4990349740
  C        57.8537553182       10.0318440125        7.4987785390
  C        58.5875988962        8.8229679850        7.4982242658
  C        59.9595564773        8.8223594813        7.4979067104
  C        60.7040387129       10.0247837616        7.4980704981
  C        62.1497712183       10.0143573725        7.4977243122
  C        62.8793952791        8.8044060379        7.4971009949
  C        64.2632005805        8.8099330824        7.4967263742
  C        64.9571508106       10.0262527790        7.4969459968
  C        14.9417677185       12.4992790332        7.5021473461
  C        15.7276570386       11.2294320906        7.5016497691
  C        17.1451267344       11.2536192820        7.5012122308
  C        17.8727143940       12.4993880736        7.5011837965
  C        19.2815894441       12.4994436091        7.5007251815
  C        20.0011335985       11.2546669437        7.5003829101
  C        21.4334610653       11.2609480184        7.4999890546
  C        22.1503868165       12.4995462892        7.5000515933
  C        23.5705749212       12.4996046285        7.4998021907
  C        24.2903515120       11.2636075716        7.4995029258
  C        25.7221411768       11.2649661351        7.4994158816
  C        26.4385916652       12.4996984309        7.4995049771
  C        27.8599287749       12.4997395917        7.4995019426
  C        28.5773323823       11.2651666612        7.4993518109
  C        30.0094311375       11.2672725918        7.4994187286
  C        30.7188595959       12.4998220676        7.4996056482
  C        32.1480775195       12.4998531490        7.4997333440
  C        32.8658594460       11.2737762391        7.4996330298
  C        34.3048501266       11.2816272440        7.4997881834
  C        35.0202967861       12.4999176676        7.4999569949
  C        37.1561444725       11.2847559725        7.5000144969
  C        38.5615339160       11.2848325908        7.5000791026
  N        39.2901027199       12.4999974654        7.5002453803
  C        40.6973472354       12.5000186806        7.5003269955
  C        41.4124432615       11.2815787004        7.5001782693
  C        42.8513690921       11.2739423948        7.5002450404
  C        43.5689131581       12.5000663109        7.5003556677
  C        44.9981042469       12.5000970743        7.5004243048
  C        45.7077097045       11.2677271249        7.5001804212
  C        47.1396759979       11.2653616978        7.5001909258
  C        47.8562602380       12.5001565649        7.5003823031
  C        49.2773844020       12.5001895822        7.5003237287
  C        49.9924346637       11.2649750962        7.5000736865
  C        51.4234539589       11.2643701043        7.4999715735
  C        52.1403265999       12.5002660201        7.5001778963
  C        53.5600452283       12.5003147910        7.5000859124
  C        54.2774923678       11.2649289190        7.4996695759
  C        55.7091057674       11.2644577047        7.4995029016
  C        56.4291068863       12.5004043693        7.4996915875
  C        57.8490118039       12.5004548255        7.4994848196
  C        58.5664395710       11.2618496277        7.4989492521
  C        59.9987718799       11.2557529013        7.4986547618
  C        60.7182895815       12.5005686044        7.4988716976
  C        62.1271538232       12.5006131948        7.4985396022
  C        62.8548979683       11.2548618119        7.4979253739
  C        64.2723865578       11.2308702324        7.4975866802
  C        65.0582808133       12.5007277076        7.4977898769
  C        15.0428329003       14.9737860910        7.5025184810
  C        15.7275671115       13.7691793983        7.5020735400
  C        17.1450372531       13.7451025190        7.5015862589
  C        17.8501460595       14.9856222276        7.5015812665
  C        19.2958302145       14.9752348357        7.5010863524
  C        20.0010521166       13.7442665972        7.5007567463
  C        21.4333802124       13.7380929225        7.5003509320
  C        22.1459895060       14.9683098510        7.5003621685
  C        23.5838666606       14.9663475438        7.5001056209
  C        24.2902708642       13.7356480824        7.4998375468
  C        25.7220633775       13.7343844601        7.4997298479
  C        26.4322468617       14.9653631219        7.4997935740
  C        27.8691744464       14.9650959537        7.4997786697
  C        28.5772584732       13.7343544021        7.4996401181
  C        30.0093589422       13.7323297257        7.4997083864
  C        30.7221995272       14.9645595600        7.4998680041
  C        32.1615105378       14.9634027554        7.5000066336
  C        32.8657977326       13.7259660176        7.4998964894
  C        34.3047929331       13.7181770092        7.5000582662
  C        35.0084880409       14.9601201514        7.5002369234
  C        36.4441770185       14.9362073906        7.5003736257
  C        37.1560876571       13.7151518482        7.5002697650
  C        38.5614786910       13.7151308170        7.5003741999
  C        39.2729467126       14.9364030934        7.5005563018
  C        40.7086519017       14.9603884824        7.5006504369
  C        41.4123933383       13.7184853375        7.5004923608
  C        42.8513188157       13.7261645391        7.5005648481
  C        43.5556897810       14.9635207170        7.5007223360
  C        44.9949007379       14.9647154538        7.5007955554
  C        45.7076511434       13.7324998378        7.5005732814
  C        47.1396154197       13.7349188783        7.5006113537
  C        47.8474953937       14.9658920654        7.5008083087
  C        49.2840166530       14.9669535260        7.5008257994
  C        49.9923674726       13.7354426894        7.5005637251
  C        51.4233845828       13.7361222621        7.5005135475
  C        52.1308509079       14.9668617543        7.5007471131
  C        53.5673868827       14.9658642180        7.5006959337
  C        54.2774177352       13.7357446651        7.5002859298
  C        55.7090279803       13.7363073467        7.5001626364
  C        56.4157057950       14.9667593491        7.5004032177
  C        57.8535859652       14.9690758575        7.5001937072
  C        58.5663482988       13.7391180424        7.4997082906
  C        59.9986794517       13.7453304314        7.4993993648
  C        60.7038605141       14.9763508718        7.4996917867
  C        62.1495909591       14.9868836401        7.4993391478
  C        62.8547995475       13.7464235774        7.4987675976
  C        64.2722877330       13.7705262261        7.4984522881
  C        64.9569629549       14.9751997610        7.4986484809
  C        15.7368197043       16.1900896240        7.5024829642
  C        17.1206007585       16.1956058389        7.5019880681
  C        20.0401540300       16.1777962478        7.5010585121
  C        21.4121175197       16.1770771909        7.5006895791
  C        24.3237624097       16.1737065749        7.5001176513
  C        25.6950945753       16.1733186409        7.4999878509
  C        28.6100533879       16.1716262955        7.4999056935
  C        29.9830628191       16.1709846733        7.4999668482
  C        32.9029542407       16.1664318241        7.5001861000
  C        34.2819194890       16.1650360840        7.5003231451
  C        37.1762169532       16.1456631618        7.5005620454
  C        38.5406737416       16.1457186948        7.5006768476
  C        41.4353532067       16.1651892082        7.5008324033
  C        42.8143065625       16.1665422920        7.5008879099
  C        45.7337496382       16.1712630291        7.5009825514
  C        47.1067015855       16.1722588699        7.5010296981
  C        50.0215537938       16.1748321621        7.5010712348
  C        51.3926440698       16.1750210912        7.5010586555
  C        54.3048962098       16.1737879162        7.5009552353
  C        55.6759185991       16.1740522844        7.5008297412
  C        58.5873336974       16.1780105826        7.5004737446
  C        59.9592884231       16.1787190637        7.5001971595
  C        62.8791200229       16.1968931005        7.4995870728
  C        64.2629244833       16.1914702522        7.4992516435
  H        15.1778632614       17.1361687736        7.5028426191
  H        17.6494122292       17.1585550954        7.5019965013
  H        19.5129399633       17.1409501640        7.5013253226
  H        21.9488112767       17.1356242481        7.5006840223
  H        23.7936301373       17.1353456158        7.5002895884
  H        26.2273015591       17.1343332189        7.5000335823
  H        28.0797478916       17.1336752595        7.4999987634
  H        30.5118523752       17.1337683567        7.5000875460
  H        32.3644703840       17.1244420155        7.5002565915
  H        34.7980026591       17.1337813944        7.5004825003
  H        36.6368569485       17.1022570566        7.5006519169
  H        39.0801390961       17.1022625268        7.5008286549
  H        40.9191306637       17.1338440495        7.5009496442
  H        43.3525839147       17.1246464085        7.5010346906
  H        45.2053553097       17.1341703502        7.5011482956
  H        47.6375371401       17.1340097790        7.5011887587
  H        49.4893839869       17.1356670769        7.5012998692
  H        51.9238631402       17.1361429378        7.5012554134
  H        53.7724798721       17.1345525235        7.5012774601
  H        56.2058344081       17.1357554603        7.5010496954
  H        58.0508845085       17.1366641187        7.5008757676
  H        60.4865931038       17.1418594183        7.5004260128
  H        62.3502758978       17.1598230309        7.5000381769
  H        64.8217813667       17.1376312727        7.4994268562
  H        15.1782164902        7.8623919063        7.5013372118
  H        17.6497669727        7.8401999325        7.5005160454
  H        19.5132758941        7.8579419250        7.4999132027
  H        21.9491523371        7.8634531668        7.4993204465
  H        23.7939332644        7.8638694779        7.4990290100
  H        26.2276044103        7.8650449090        7.4988226845
  H        28.0800041060        7.8658186286        7.4988797688
  H        30.5121119867        7.8658588489        7.4990091961
  H        32.3646809753        7.8752737725        7.4992281419
  H        34.7982131940        7.8660423535        7.4994553946
  H        36.6370379913        7.8976359196        7.4996124157
  H        39.0803211858        7.8977184828        7.4997540251
  H        40.9193091672        7.8661943405        7.4997604838
  H        43.3527611290        7.8754901845        7.4997723112
  H        45.2055624281        7.8660276539        7.4996726849
  H        47.6377411165        7.8662992590        7.4995903445
  H        49.4896334056        7.8647282445        7.4994134935
  H        51.9241120950        7.8643871401        7.4992080738
  H        53.7727807344        7.8660841213        7.4989080015
  H        56.2061341281        7.8650466664        7.4985210633
  H        58.0512247202        7.8642716274        7.4980556894
  H        60.4869292297        7.8592558307        7.4974638917
  H        62.3506291787        7.8414348255        7.4968953143
  H        64.8221314065        7.8638143567        7.4962226358
  H        13.9412746114       14.9505707775        7.5029141871
  H        65.7391667815       12.5010584933        6.6186359739
  H        14.2603208951       12.4993899216        6.6234502152
  H        14.2609633414       12.4991078126        8.3813493839
  H        13.9414615337       10.0478969465        7.5021049506
  H        65.7396460002       12.5004536033        8.3765664444
  H        66.0585325980       14.9521348478        7.4983635568
  H        66.0587199479       10.0494046188        7.4966438493
  N        36.4276469130       12.4999383031        7.5000747822
     224
 i =        3, E =      -994.0691963197
  C        15.0444934515       10.0256238309        7.5017035961
  C        15.7358969530        8.8079285907        7.5012940527
  C        17.1196719792        8.8043995514        7.5008256702
  C        17.8534785032       10.0115222106        7.5007800166
  C        19.2988410780       10.0245171620        7.5003660288
  C        20.0405035122        8.8202796694        7.4999386099
  C        21.4126591898        8.8235438104        7.4996171730
  C        22.1460568834       10.0327125328        7.4996538658
  C        23.5839066352       10.0336061043        7.4994134726
  C        24.3235076152        8.8259891022        7.4991428944
  C        25.6950803471        8.8267027423        7.4990140204