     222
 i =        1, E =      -974.2570663490
  C        15.0452561220       10.0317453745        7.5017263130
  C        15.7358767464        8.8249122006        7.5013005484
  C        17.1202226855        8.8093093830        7.5008385252
  C        17.8610171496       10.0177428122        7.5007889976
  C        19.2970040249       10.0304959207        7.5003521998
  C        20.0432275475        8.8349740515        7.4999475276
  C        21.4166183761        8.8352474169        7.4996113625
  C        22.1528781216       10.0386118410        7.4996585622
  C        23.5844661737       10.0397710042        7.4994176880
  C        24.3250744373        8.8388123898        7.4991325042
  C        25.6976741885        8.8390022772        7.4990186612
  C        26.4368531611       10.0405435808        7.4991729888
  C        27.8676841946       10.0405871372        7.4991692703
  C        28.6075574970        8.8392048740        7.4990315544
  C        29.9800332329        8.8401184624        7.4991085678
  C        30.7205674496       10.0412967449        7.4993125354
  C        32.1511662483       10.0431510316        7.4994392732
  C        32.8911674663        8.8415152018        7.4993803079
  C        34.2625832666        8.8347373563        7.4995100227
  C        35.0024223135       10.0353114644        7.4997080167
  C        36.4245608393       10.0407498575        7.4998219347
  C        39.2928071277       10.0408082423        7.4999884284
  C        40.7149511801       10.0352735055        7.5000275565
  C        41.4548223130        8.8346969868        7.4998901045
  C        42.8263147772        8.8415984840        7.4998962959
  C        43.5661583636       10.0432871835        7.5000473481
  C        44.9968284243       10.0416388689        7.5000322528
  C        45.7374437582        8.8404815469        7.4998155875
  C        47.1100766185        8.8396588329        7.4997746895
  C        47.8499689425       10.0409969306        7.4999432425
  C        49.2806608496       10.0411763154        7.4998679899
  C        50.0205391620        8.8400945431        7.4995721535
  C        51.3930057216        8.8399751365        7.4994585825
  C        52.1327584104       10.0412011945        7.4996418347
  C        53.5635649871       10.0411879997        7.4994782309
  C        54.3025892564        8.8397689019        7.4990793845
  C        55.6751398593        8.8399121611        7.4988600942
  C        56.4157142150       10.0407642669        7.4990416045
  C        57.8472736302       10.0395675172        7.4987576292
  C        58.5836229986        8.8362543955        7.4982320479
  C        59.9570200314        8.8360240746        7.4978977658
  C        60.7031025590       10.0317040871        7.4980741397
  C        62.1391276671       10.0189821192        7.4976982980
  C        62.8800677035        8.8106400923        7.4970917505
  C        64.2644363005        8.8262208083        7.4967115361
  C        64.9549281876       10.0330957922        7.4969430413
  C        14.9484061791       12.4992716735        7.5021649806
  C        15.7366785591       11.2350575112        7.5016795304
  C        17.1548752827       11.2568093510        7.5012168795
  C        17.8703758824       12.4994069609        7.5011870079
  C        19.2878846182       12.4994689032        7.5007548221
  C        20.0049156792       11.2637227128        7.5003567994
  C        21.4377547334       11.2669717652        7.5000040131
  C        22.1524662850       12.4994648099        7.5000381744
  C        23.5769467827       12.4995564359        7.4997894585
  C        24.2933935017       11.2696829051        7.4995142378
  C        25.7257159157       11.2697104081        7.4993867420
  C        26.4397101386       12.4998169779        7.4995144642
  C        27.8636093371       12.4998917935        7.4994897322
  C        28.5777286420       11.2699394136        7.4993491605
  C        30.0096282220       11.2703372758        7.4994126801
  C        30.7251614658       12.4991261175        7.4996092522
  C        32.1492049749       12.4990025310        7.4997178701
  C        32.8647728488       11.2701892889        7.4996435291
  C        34.2963250181       11.2686340797        7.4997776060
  C        35.0088768647       12.4976513711        7.4999729610
  C        36.4326677394       12.4911068104        7.5000884508
  C        37.1414101124       11.2574570152        7.5000061677
  C        38.5757792040       11.2573849864        7.5000928122
  C        39.2844542305       12.4911847161        7.5002742074
  C        40.7082349661       12.4977556541        7.5003294145
  C        41.4209133567       11.2687334875        7.5001927657
  C        42.8525336326       11.2703849862        7.5002142075
  C        43.5682005962       12.4992179642        7.5003930234
  C        44.9923164115       12.4994121223        7.5004058499
  C        45.7079209222       11.2706359647        7.5002128536
  C        47.1398863766       11.2703326145        7.5001791403
  C        47.8537987395       12.5003580130        7.5003780523
  C        49.2775177746       12.5003258523        7.5003353716
  C        49.9910094499       11.2703146035        7.5000668699
  C        51.4227270696       11.2702698857        7.4999701911
  C        52.1365637160       12.5002504000        7.5001914252
  C        53.5602628233       12.5002521088        7.5000659265
  C        54.2743838437       11.2703003778        7.4996824517
  C        55.7065802271       11.2705242140        7.4994791881
  C        56.4227884038       12.5004536031        7.4997040249
  C        57.8472217186       12.5005105244        7.4994668618
  C        58.5621206292       11.2680006075        7.4989554568
  C        59.9949665550       11.2647924014        7.4986302784
  C        60.7120434331       12.5005636906        7.4988580275
  C        62.1295854313       12.5006021166        7.4985205034
  C        62.8452645175       11.2581146419        7.4979257006
  C        64.2634851439       11.2364660002        7.4975505397
  C        65.0516556184       12.5007294577        7.4977756517
  C        15.0450842169       14.9668436818        7.5025281154
  C        15.7365545568       13.7635100809        7.5020881515
  C        17.1547452354       13.7418911031        7.5016110653
  C        17.8608027208       14.9810391963        7.5015736348
  C        19.2967967859       14.9684152330        7.5011123727
  C        20.0049057230       13.7352550071        7.5007348672
  C        21.4377382950       13.7320980168        7.5003631140
  C        22.1526786815       14.9604953144        7.5003610130
  C        23.5842640545       14.9595741112        7.5000971583
  C        24.2931751126       13.7296001009        7.4998520796
  C        25.7254773538       13.7298699168        7.4997078730
  C        26.4367181093       14.9588447011        7.4998020164
  C        27.8677570824       14.9587803099        7.4997690045
  C        28.5782575725       13.7295776218        7.4996419436
  C        30.0101933252       13.7286843615        7.4996991378
  C        30.7192467256       14.9584959749        7.4998734669
  C        32.1502180872       14.9578748304        7.4999871340
  C        32.8621955254       13.7292421340        7.4999145396
  C        34.2938355726       13.7279089698        7.5000465982
  C        35.0026369644       14.9576216508        7.5002500235
  C        36.4340620000       14.9546123118        7.5003682363
  C        37.1426876491       13.7241370516        7.5002802972
  C        38.5744308224       13.7241222229        7.5003793200
  C        39.2831320217       14.9546482950        7.5005718258
  C        40.7145547594       14.9578435381        7.5006476865
  C        41.4232473089       13.7280935871        7.5005117666
  C        42.8550386048       13.7293941138        7.5005550910
  C        43.5669322710       14.9581729753        7.5007417724
  C        44.9979685728       14.9587428947        7.5007846629
  C        45.7073354942       13.7289692228        7.5006025296
  C        47.1392571197       13.7299418432        7.5006074030
  C        47.8496636453       14.9591643274        7.5008224736
  C        49.2804783644       14.9592203920        7.5008273762
  C        49.9911405429       13.7302961579        7.5005673392
  C        51.4227571656       13.7302222333        7.5005175181
  C        52.1326676512       14.9594518397        7.5007615240
  C        53.5633836956       14.9594098171        7.5006874880
  C        54.2742111862       13.7302707352        7.5003043076
  C        55.7064039261       13.7302420533        7.5001480481
  C        56.4155153624       14.9600524464        7.5004085807
  C        57.8470837112       14.9613408016        7.5002015983
  C        58.5620484167       13.7329278207        7.4996995647
  C        59.9948933960       13.7362577615        7.4994145297
  C        60.7028877083       14.9694666676        7.4996649686
  C        62.1389098610       14.9822386279        7.4993449044
  C        62.8451414483       13.7431989796        7.4987618935
  C        64.2633641660       13.7649698065        7.4984165648
  C        64.9547518644       14.9683226182        7.4986459153
  C        15.7355652786       16.1737086849        7.5024881819
  C        17.1199135280       16.1894289769        7.5020111891
  C        20.0429430936       16.1639906792        7.5010504807
  C        21.4163338612       16.1638117894        7.5006888043
  C        24.3247773236       16.1605304869        7.5001222530
  C        25.6974156403       16.1601993739        7.4999793719
  C        28.6067903801       16.1604649456        7.4999099817
  C        29.9793208862       16.1597290372        7.4999596840
  C        32.8894013839       16.1590977501        7.5001911516
  C        34.2623126913       16.1584543034        7.5003195931
  C        37.1722025096       16.1569746917        7.5005718193
  C        38.5448881225       16.1569940049        7.5006763501
  C        41.4548511506       16.1587778437        7.5008385010
  C        42.8277545920       16.1594253602        7.5008815825
  C        45.7378546254       16.1600207377        7.5009924935
  C        47.1104585413       16.1607689150        7.5010187444
  C        50.0203920255       16.1601856268        7.5010721234
  C        51.3928969327       16.1605577660        7.5010501864
  C        54.3023579845       16.1609040994        7.5009597237
  C        55.6749065043       16.1608083192        7.5008310575
  C        58.5833508041       16.1646739729        7.5004594089
  C        59.9567504787       16.1650405034        7.5002042659
  C        62.8797652608       16.1906307374        7.4995803639
  C        64.2641319921       16.1751689649        7.4992380708
  H        15.1806893606       17.1145333585        7.5028411386
  H        17.6187648788       17.1596211845        7.5020076296
  H        19.5430958593       17.1331482771        7.5013211619
  H        21.9167130146       17.1327621021        7.5006982960
  H        23.8256425162       17.1300068141        7.5002899242
  H        26.1964304753       17.1295601459        7.5000391718
  H        28.1074396150       17.1297587289        7.5000001093
  H        30.4780286576       17.1292817625        7.5000898941
  H        32.3908680270       17.1287590981        7.5002593818
  H        34.7604106329       17.1282695814        7.5004802331
  H        36.6744893151       17.1272863263        7.5006590148
  H        39.0425886459       17.1273098076        7.5008307333
  H        40.9565611758       17.1286191472        7.5009502825
  H        43.3262208826       17.1291546824        7.5010392146
  H        45.2390909042       17.1295330231        7.5011495571
  H        47.6096810264       17.1300819825        7.5011902106
  H        49.5215587238       17.1295514127        7.5012996923
  H        51.8921417790       17.1298317053        7.5012594469
  H        53.8031624508       17.1301846328        7.5012712705
  H        56.1735696552       17.1304194116        7.5010495402
  H        58.0830188692       17.1337291888        7.5008709361
  H        60.4565279748       17.1343027485        7.5004289067
  H        62.3808649595       17.1609252406        7.5000309005
  H        64.8190616014       17.1160604999        7.4994219164
  H        15.1810158703        7.8840363823        7.5013395276
  H        17.6191706748        7.8390769961        7.5005283428
  H        19.5433967477        7.8657666999        7.4999109735
  H        21.9170245073        7.8662929854        7.4993284932
  H        23.8260529664        7.8692840389        7.4990297337
  H        26.1968198554        7.8696764458        7.4988290097
  H        28.1077962258        7.8700195927        7.4988794391
  H        30.4782724293        7.8703899703        7.4990102487
  H        32.3930975218        7.8724391836        7.4992296990
  H        34.7669450254        7.8684639791        7.4994507567
  H        40.9504203700        7.8684114251        7.4997599797
  H        43.3243864321        7.8724852067        7.4997708364
  H        45.2393396251        7.8706811903        7.4996692728
  H        47.6097316921        7.8704904453        7.4995904690
  H        49.5216706707        7.8707616385        7.4994099359
  H        51.8922347342        7.8707544760        7.4992097197
  H        53.8034503617        7.8704988618        7.4989012086
  H        56.1739531420        7.8703437709        7.4985197539
  H        58.0833257518        7.8672182868        7.4980419122
  H        60.4569192504        7.8668697697        7.4974688775
  H        62.3811775661        7.8403392437        7.4968823929
  H        64.8193729755        7.8853926306        7.4962276181
  H        13.9494461327       14.9492180331        7.5029188561
  H        65.7251435177       12.5010869771        6.6122194163
  H        14.2742866466       12.4994086340        6.6170811812
  H        14.2749858844       12.4991102498        8.3877387422
  H        13.9496110235       10.0491931552        7.5021092413
  H        65.7256470432       12.5004850803        8.3829640622
  H        66.0504032125       14.9507852791        7.4983597138
  H        66.0505754897       10.0507962589        7.4966408470
  H        38.5920017436        8.8953576996        7.4998280708
  H        37.1253047475        8.8953577209        7.4997519430
     222
 i =        2, E =      -974.2824212393
  C        15.0446858031       10.0304784961        7.5017253898
  C        15.7362575148        8.8224277545        7.5012981896
  C        17.1205102201        8.8082434540        7.5008377056
  C        17.8590783063       10.0171848737        7.5007885437
  C        19.2965856878       10.0294569106        7.5003497224
  C        20.0426994755        8.8329247473        7.4999489234
  C        21.4158664115        8.8330814747        7.4996099588
  C        22.1517695094       10.0373043478        7.4996601191
  C        23.5843576446       10.0387296970        7.4994200991
  C        24.3248716312        8.8366961370        7.4991313705
  C        25.6972654657        8.8369139686        7.4990208797
  C        26.4364093004       10.0395061832        7.4991707382
  C        27.8682552202       10.0398239501        7.4991709622
  C        28.6084130005        8.8374900283        7.4990312489
  C        29.9806880862        8.8379402923        7.4991093955
  C        30.7220830355       10.0398950121        7.4993131412
  C        32.1535870604       10.0400880326        7.4994415548
  C        32.8945373205        8.8373496497        7.4993798243
  C        34.2655048195        8.8324031786        7.4995097203
  C        35.0089245767       10.0326912064        7.4997077811
  C        36.4273673417       10.0356700752        7.4998204070
  C        39.2900546428       10.0356946819        7.4999884392
  C        40.7084922632       10.0326621769        7.5000285555
  C        41.4519397943        8.8323835929        7.4998874679
  C        42.8229642210        8.8374644841        7.4998986761
  C        43.5637489590       10.0402622464        7.5000399882
  C        44.9952969294       10.0402607998        7.5000387742
  C        45.7367250560        8.8383040050        7.4998117345
  C        47.1091158509        8.8378979455        7.4997772687
  C        47.8492796783       10.0401667084        7.4999401938
  C        49.2809419411       10.0399024709        7.4998684842
  C        50.0207614352        8.8377148030        7.4995710906
  C        51.3930050066        8.8376579548        7.4994596182
  C        52.1324898748       10.0400796638        7.4996406266
  C        53.5642111744       10.0402130788        7.4994799186
  C        54.3030198459        8.8377483655        7.4990783911
  C        55.6753237117        8.8378038369        7.4988604003
  C        56.4157691245       10.0396865621        7.4990402138
  C        57.8483196228       10.0383032682        7.4987616652
  C        58.5843276285        8.8341509772        7.4982302913
  C        59.9575004137        8.8340235965        7.4978995273
  C        60.7034872855       10.0306810857        7.4980728475
  C        62.1410382335       10.0184040485        7.4977030429
  C        62.8797609849        8.8095505225        7.4970931709
  C        64.2640426941        8.8237903675        7.4967136900
  C        64.9555424325       10.0318588261        7.4969440528
  C        14.9477617124       12.4993104154        7.5021594019
  C        15.7351907282       11.2339084914        7.5016741473
  C        17.1532498110       11.2565418878        7.5012149655
  C        17.8710231264       12.4993986509        7.5011869943
  C        19.2871205999       12.4994006677        7.5007491965
  C        20.0043855386       11.2621334789        7.5003618744
  C        21.4371310975       11.2660039179        7.5000008218
  C        22.1521957861       12.4995257491        7.5000408235
  C        23.5759449922       12.4996535219        7.4997918151
  C        24.2929581245       11.2687466540        7.4995116535
  C        25.7252456597       11.2688159859        7.4993923600
  C        26.4401178445       12.4996641683        7.4995122476
  C        27.8634577971       12.4995923442        7.4994920700
  C        28.5787794496       11.2689910797        7.4993496806
  C        30.0108795745       11.2691835659        7.4994135004
  C        30.7260447632       12.4993029707        7.4996084817
  C        32.1496748501       12.4986163665        7.4997210616
  C        32.8649884942       11.2682531140        7.4996409449
  C        34.2964414011       11.2645008647        7.4997792789
  C        35.0094369457       12.4931067071        7.4999694675
  C        36.4326589582       12.4862112828        7.5000884102
  C        37.1398426953       11.2497383645        7.5000075650
  C        38.5774083471       11.2496460095        7.5000887510
  C        39.2844715756       12.4862750812        7.5002749219
  C        40.7076835461       12.4932081132        7.5003292793
  C        41.4208009313       11.2646130079        7.5001893727
  C        42.8522998866       11.2684564689        7.5002204400
  C        43.5676956012       12.4988292571        7.5003855710
  C        44.9913790969       12.4995941463        7.5004092204
  C        45.7066153536       11.2695044721        7.5002064054
  C        47.1387454598       11.2693486993        7.5001813503
  C        47.8537394181       12.5000616536        7.5003790860
  C        49.2768866073       12.5001591625        7.5003325951
  C        49.9910984111       11.2692990255        7.5000684418
  C        51.4227527437       11.2693697206        7.4999704203
  C        52.1371452216       12.5003361749        7.5001888419
  C        53.5601684384       12.5003138559        7.5000700187
  C        54.2749063246       11.2694835131        7.4996798329
  C        55.7070091912       11.2695287800        7.4994835325
  C        56.4238650753       12.5003864580        7.4997012612
  C        57.8475438132       12.5004864843        7.4994704325
  C        58.5627984337       11.2669834978        7.4989536651
  C        59.9955436589       11.2632717976        7.4986346761
  C        60.7127562949       12.5005995339        7.4988604534
  C        62.1288886954       12.5006079900        7.4985237007
  C        62.8468124615       11.2578407936        7.4979259645
  C        64.2649001812       11.2352747951        7.4975570346
  C        65.0522861277       12.5007029822        7.4977802960
  C        15.0444697387       14.9681087672        7.5025258740
  C        15.7351095347       13.7647164821        7.5020856258
  C        17.1531613189       13.7421759170        7.5016055516
  C        17.8588908802       14.9816115953        7.5015758846
  C        19.2964029229       14.9694518518        7.5011075325
  C        20.0042641435       13.7367666534        7.5007394444
  C        21.4369947463       13.7331056409        7.5003605737
  C        22.1515023060       14.9618059289        7.5003611229
  C        23.5841046464       14.9606142312        7.5000990151
  C        24.2928661364       13.7306439553        7.4998491871
  C        25.7251118436       13.7305839848        7.4997121104
  C        26.4360130875       14.9598403612        7.4998002100
  C        27.8680848793       14.9598121221        7.4997709092
  C        28.5784845087       13.7303625820        7.4996413697
  C        30.0104697642       13.7300305736        7.4997011091
  C        30.7198800473       14.9595820014        7.4998719505
  C        32.1520213589       14.9587229907        7.4999909023
  C        32.8636115033       13.7293271150        7.4999106541
  C        34.2950136264       13.7261760776        7.5000498672
  C        35.0025286834       14.9561903661        7.5002469107
  C        36.4351162491       14.9518926899        7.5003691592
  C        37.1429662021       13.7207997120        7.5002789095
  C        38.5741805711       13.7207989588        7.5003785466
  C        39.2820790437       14.9519439341        7.5005689402
  C        40.7146702671       14.9564218161        7.5006482809
  C        41.4220567105       13.7263573773        7.5005082392
  C        42.8535814704       13.7294569313        7.5005578522
  C        43.5651096694       14.9589666179        7.5007379560
  C        44.9972884705       14.9598067075        7.5007875754
  C        45.7069823671       13.7303153758        7.5005969928
  C        47.1389333742       13.7307841656        7.5006085333
  C        47.8492339767       14.9602795191        7.5008197245
  C        49.2810476359       14.9604407155        7.5008274094
  C        49.9911177842       13.7311145529        7.5005670162
  C        51.4226628058       13.7312222677        7.5005171389
  C        52.1324329618       14.9605731322        7.5007588072
  C        53.5640914653       14.9604053106        7.5006893284
  C        54.2748472896       13.7311607735        7.5003004808
  C        55.7069390585       13.7311706258        7.5001508888
  C        56.4155665047       14.9611253126        7.5004077834
  C        57.8481232019       14.9626107594        7.5001999850
  C        58.5626890725       13.7339445435        7.4997011779
  C        59.9954334568       13.7378338603        7.4994112285
  C        60.7033070882       14.9704969929        7.4996703921
  C        62.1408577459       14.9828123067        7.4993432634
  C        62.8467227078       13.7434598425        7.4987625826
  C        64.2648114554       13.7661207360        7.4984235459
  C        64.9553376001       14.9695637796        7.4986455111
  C        15.7359581682       16.1761633250        7.5024878016
  C        17.1202154904       16.1904936081        7.5020069279
  C        20.0423665890       16.1660721405        7.5010519454
  C        21.4155343790       16.1659722004        7.5006891548
  C        24.3245999558       16.1625525641        7.5001211699
  C        25.6970448613       16.1623727773        7.4999810052
  C        28.6071301795       16.1624393144        7.4999091802
  C        29.9795416282       16.1616347070        7.4999610597
  C        32.8906751768       16.1607511911        7.5001900292
  C        34.2635605130       16.1589164223        7.5003200873
  C        37.1723917598       16.1555562112        7.5005700219
  C        38.5446897172       16.1555776420        7.5006770336
  C        41.4536496749       16.1592114687        7.5008373092
  C        42.8265209402       16.1610552865        7.5008827010
  C        45.7375585086       16.1619182983        7.5009905518
  C        47.1100161772       16.1627882461        7.5010209950
  C        50.0205686687       16.1626580027        7.5010718119
  C        51.3928610647       16.1627941747        7.5010518092
  C        54.3028449096       16.1629190621        7.5009589829
  C        55.6751467517       16.1629513452        7.5008307312
  C        58.5840320995       16.1667928980        7.5004620824
  C        59.9572093925       16.1670215985        7.5002024773
  C        62.8794723996       16.1917307509        7.4995815015
  C        64.2637508474       16.1776201048        7.4992406366
  H        15.1803479845       17.1177228738        7.5028413620
  H        17.6237026831       17.1595675465        7.5020058209
  H        19.5383797380       17.1343503690        7.5013217894
  H        21.9217618752       17.1332088104        7.5006959531
  H        23.8206154561       17.1308337097        7.5002898658
  H        26.2012117763       17.1304556716        7.5000382753
  H        28.1025967954       17.1305237838        7.4999998684
  H        30.4830550859       17.1300292460        7.5000894688
  H        32.3862248673       17.1288727507        7.5002589657
  H        34.7652938083       17.1282430360        7.5004804392
  H        36.6698988391       17.1248879103        7.5006582328
  H        39.0471704264       17.1249118687        7.5008304499
  H        40.9517100107       17.1285326622        7.5009500658
  H        43.3308598540       17.1292610071        7.5010387361
  H        45.2340787043       17.1303056846        7.5011493704
  H        47.6145521347       17.1308269915        7.5011900088
  H        49.5165200952       17.1306962579        7.5012997838
  H        51.8970904453       17.1308394631        7.5012587951
  H        53.7984386153       17.1308613057        7.5012722324
  H        56.1787122041       17.1313011616        7.5010496177
  H        58.0779303463       17.1341506158        7.5008716794
  H        60.4611695885       17.1353729550        7.5004284701
  H        62.3759270423       17.1608782666        7.5000321026
  H        64.8193714011       17.1192668705        7.4994225588
  H        15.1806737496        7.8808156569        7.5013393424
  H        17.6240945174        7.8391453844        7.5005262893
  H        19.5387062923        7.8646164560        7.4999112917
  H        21.9220859156        7.8658246508        7.4993272102
  H        23.8209643519        7.8683675979        7.4990296032
  H        26.2015654564        7.8688711267        7.4988279666
  H        28.1035064987        7.8695193430        7.4988795397
  H        30.4835988220        7.8693543977        7.4990099913
  H        32.3876849221        7.8715893918        7.4992291527
  H        34.7747213180        7.8671537054        7.4994517430
  H        40.9426706796        7.8671349498        7.4997601467
  H        43.3297914079        7.8716643335        7.4997708179
  H        45.2340171698        7.8696252571        7.4996699233
  H        47.6140492865        7.8700052985        7.4995904133
  H        49.5166680286        7.8697093102        7.4994105458
  H        51.8972498557        7.8696582203        7.4992094321
  H        53.7987237760        7.8697791040        7.4989022699
  H        56.1790655895        7.8695169925        7.4985200140
  H        58.0782493488        7.8668105995        7.4980441556
  H        60.4615597677        7.8657583944        7.4974681367
  H        62.3762458661        7.8403867899        7.4968844575
  H        64.8196867553        7.8822063348        7.4962269313
  H        13.9479388553       14.9494581303        7.5029180614
  H        65.7272739667       12.5010920965        6.6134810836
  H        14.2721739289       12.4993957283        6.6183193213
  H        14.2728697091       12.4990996351        8.3864980306
  H        13.9481514073       10.0489621612        7.5021085177
  H        65.7277762912       12.5004907880        8.3817068388
  H        66.0518830632       14.9510406996        7.4983604550
  H        66.0520860266       10.0505332381        7.4966412564
  H        38.6406910789        8.9482754205        7.4998355802
  H        37.0766373577        8.9482413876        7.4997548793
     222
 i =        3, E =      -974.3009822053
  C        15.0450222842       10.0298841389        7.5017199502
  C        15.7359301045        8.8198302107        7.5012979927
  C        17.1201012678        8.8078152994        7.5008353331
  C        17.8586472778       10.0159285918        7.5007858269
  C        19.2974664123       10.0286712071        7.5003553299
  C        20.0423699503        8.8305360947        7.4999456682
  C        21.4153574520        8.8316333705        7.4996124452
  C        22.1508720550       10.0367375650        7.4996575997
  C        23.5844019414       10.0379144641        7.4994170699
  C        24.3248844163        8.8349420070        7.4991348808
  C        25.6971262508        8.8351226718        7.4990178971
  C        26.4362162744       10.0386748376        7.4991785368
  C        27.8689521074       10.0389849918        7.4991690944
  C        28.6089939551        8.8356161362        7.4990327686
  C        29.9810213390        8.8355332332        7.4991088162