     224
 i =        1, E =      -985.6629452672
  C        15.0433903335       10.0314048263        7.5017303125
  C        15.7370857939        8.8284021915        7.5013043568
  C        17.1216169050        8.8093629072        7.5008389442
  C        17.8608623534       10.0196587203        7.5007929813
  C        19.2952902531       10.0320342764        7.5003524207
  C        20.0430927196        8.8382863380        7.4999486830
  C        21.4168806854        8.8372655862        7.4996090462
  C        22.1538661383       10.0395303045        7.4996587812
  C        23.5844069941       10.0411501626        7.4994177242
  C        24.3250908527        8.8413773200        7.4991332276
  C        25.6980241355        8.8418168310        7.4990220275
  C        26.4373862845       10.0421128963        7.4991682547
  C        27.8671283506       10.0423273658        7.4991660247
  C        28.6069581485        8.8422717298        7.4990323390
  C        29.9797517281        8.8424921962        7.4991055074
  C        30.7198287489       10.0423185731        7.4993139361
  C        32.1494126670       10.0423668596        7.4994401709
  C        32.8895813862        8.8425344836        7.4993750123
  C        34.2624346770        8.8426307116        7.4995081133
  C        35.0025023158       10.0425518534        7.4997052549
  C        36.4321550611       10.0424064926        7.4998207020
  C        37.1722466768        8.8424432397        7.4997499781
  C        38.5451287489        8.8424503850        7.4998214557
  C        39.2851897620       10.0424512625        7.4999862164
  C        40.7149036348       10.0424706685        7.5000294988
  C        41.4550106928        8.8424972888        7.4998870494
  C        42.8278943295        8.8425453777        7.4999012898
  C        43.5679380769       10.0425329348        7.5000412023
  C        44.9975984870       10.0427294453        7.5000382915
  C        45.7377188150        8.8428447877        7.4998107663
  C        47.1105818446        8.8428094590        7.4997751149
  C        47.8507043812       10.0426704008        7.4999392416
  C        49.2802956105       10.0426898378        7.4998651376
  C        50.0204408462        8.8429027669        7.4995708553
  C        51.3932398541        8.8427570380        7.4994606634
  C        52.1330108978       10.0428568915        7.4996389693
  C        53.5627556778       10.0427277396        7.4994767548
  C        54.3022050358        8.8424780009        7.4990750620
  C        55.6751436006        8.8421269923        7.4988596174
  C        56.4157493549       10.0419484627        7.4990375241
  C        57.8462970986       10.0404314930        7.4987613524
  C        58.5833803295        8.8382285174        7.4982339362
  C        59.9571736358        8.8393515687        7.4978961109
  C        60.7048825213       10.0331587897        7.4980740804
  C        62.1393125664       10.0208971083        7.4976950838
  C        62.8786564283        8.8106604622        7.4970860607
  C        64.2631907566        8.8298038905        7.4967117664
  C        64.9567951329       10.0328544969        7.4969423769
  C        14.9523557385       12.4992801030        7.5021685306
  C        15.7376308571       11.2335854089        7.5016839516
  C        17.1558820000       11.2592032326        7.5012200638
  C        17.8723216945       12.4993807127        7.5011935469
  C        19.2911556093       12.4994425355        7.5007451628
  C        20.0061533056       11.2642346941        7.5003609511
  C        21.4390844457       11.2678631694        7.5000002433
  C        22.1531442326       12.4995542149        7.5000389529
  C        23.5781577856       12.4996038553        7.4997864409
  C        24.2939276090       11.2707906161        7.4995126033
  C        25.7261789204       11.2708852335        7.4993900309
  C        26.4399290574       12.4996984723        7.4995141159
  C        27.8642326567       12.4997414213        7.4994940872
  C        28.5776650523       11.2710049980        7.4993459333
  C        30.0093278911       11.2710758130        7.4994143100
  C        30.7224895236       12.4998220699        7.4996062180
  C        32.1465936828       12.4998567894        7.4997186445
  C        32.8599053075       11.2711459953        7.4996396432
  C        34.2915966375       11.2711692050        7.4997764662
  C        35.0049117123       12.4999168212        7.4999698726
  C        36.4291359906       12.4999409057        7.5000907050
  C        37.1426737740       11.2712643015        7.5000059160
  C        38.5744546808       11.2712291937        7.5000897829
  C        39.2878588866       12.4999951309        7.5002752855
  C        40.7121380861       12.5000183505        7.5003303282
  C        41.4255917532       11.2712777553        7.5001941421
  C        42.8573681749       11.2713632266        7.5002177261
  C        43.5708576101       12.5000663063        7.5003872613
  C        44.9950853012       12.5000933787        7.5004075674
  C        45.7084548667       11.2713770299        7.5002062104
  C        47.1401481033       11.2714133290        7.5001787893
  C        47.8533963956       12.5001574776        7.5003841408
  C        49.2775050130       12.5001897771        7.5003336635
  C        49.9907341919       11.2714853989        7.5000703455
  C        51.4224040695       11.2714923637        7.4999720593
  C        52.1357610152       12.5002692569        7.5001905666
  C        53.5600702076       12.5003120343        7.5000695184
  C        54.2738941301       11.2715464470        7.4996843173
  C        55.7061462412       11.2715431005        7.4994800340
  C        56.4218381722       12.5004048176        7.4997024035
  C        57.8468523224       12.5004521991        7.4994680390
  C        58.5609954610       11.2688209711        7.4989512213
  C        59.9939284756       11.2653112520        7.4986309133
  C        60.7088414022       12.5005677315        7.4988607171
  C        62.1276750217       12.5006188028        7.4985173966
  C        62.8442048369       11.2604918279        7.4979241426
  C        64.2624567818       11.2349786057        7.4975485410
  C        65.0476392466       12.5007322633        7.4977713562
  C        15.0431960794       14.9671517612        7.5025324537
  C        15.7375392318       13.7650325477        7.5020942649
  C        17.1557906904       13.7395072591        7.5016065587
  C        17.8606769592       14.9791080151        7.5015764051
  C        19.2951073572       14.9668487313        7.5011056255
  C        20.0060655140       13.7346956020        7.5007395189
  C        21.4389982428       13.7311844919        7.5003610751
  C        22.1536948116       14.9595773553        7.5003579626
  C        23.5842432655       14.9580544539        7.5000962222
  C        24.2938468016       13.7284664769        7.4998492057
  C        25.7261003321       13.7284638942        7.4997094907
  C        26.4372383589       14.9572818396        7.4997974511
  C        27.8669831463       14.9571556588        7.4997740483
  C        28.5775931927       13.7285190796        7.4996373989
  C        30.0092589570       13.7285251272        7.4997016041
  C        30.7196984505       14.9573213109        7.4998721761
  C        32.1492900251       14.9573403217        7.4999914923
  C        32.8598473676       13.7285984688        7.4999134649
  C        34.2915408075       13.7286359459        7.5000454015
  C        35.0023972175       14.9572819932        7.5002484610
  C        36.4320571972       14.9574770177        7.5003666456
  C        37.1426238414       13.7286457830        7.5002846868
  C        38.5744049211       13.7287335953        7.5003822661
  C        39.2850885469       14.9575402611        7.5005746614
  C        40.7148071924       14.9575673770        7.5006477237
  C        41.4255427384       13.7287859161        7.5005132137
  C        42.8573168499       13.7287448840        7.5005600949
  C        43.5678342997       14.9576034913        7.5007395535
  C        44.9974920591       14.9574614337        7.5007884098
  C        45.7083973013       13.7288435048        7.5005984639
  C        47.1400837530       13.7288672837        7.5006053049
  C        47.8505807640       14.9576446892        7.5008249237
  C        49.2801684616       14.9576901972        7.5008264061
  C        49.9906659009       13.7289319781        7.5005665341
  C        51.4223296949       13.7290031459        7.5005167338
  C        52.1328673215       14.9576818417        7.5007606793
  C        53.5626041797       14.9578942726        7.5006881887
  C        54.2738167141       13.7291193438        7.5003048040
  C        55.7060677731       13.7292196769        7.5001490428
  C        56.4155833811       14.9588619575        7.5004102482
  C        57.8461286362       14.9604755314        7.5001987874
  C        58.5609078964       13.7321387318        7.4997006669
  C        59.9938435346       13.7357668302        7.4994085216
  C        60.7047068069       14.9679724851        7.4996711927
  C        62.1391303168       14.9803463558        7.4993432426
  C        62.8441086653       13.7408019940        7.4987592175
  C        64.2623596675       13.7664209669        7.4984197853
  C        64.9566048213       14.9686016143        7.4986449293
  C        15.7368045902       16.1701975248        7.5024872876
  C        17.1213391027       16.1893464809        7.5020130657
  C        20.0428185368       16.1606472155        7.5010512223
  C        21.4166133258       16.1617791437        7.5006882155
  C        24.3248522493       16.1578800241        7.5001212947
  C        25.6977865185       16.1575311688        7.4999826001
  C        28.6067528185       16.1572558433        7.4999058815
  C        29.9795520823       16.1571076957        7.4999593771
  C        32.8894117815       16.1572055373        7.5001891051
  C        34.2622706630       16.1571678327        7.5003181818
  C        37.1720989183       16.1574686201        7.5005744639
  C        38.5449821555       16.1575105808        7.5006750475
  C        41.4548672609       16.1575601545        7.5008396980
  C        42.8277512880       16.1575664662        7.5008846134
  C        45.7375589599       16.1573784325        7.5009926414
  C        47.1104166004       16.1574751172        7.5010204293
  C        50.0202467858       16.1575196696        7.5010735178
  C        51.3930398337       16.1577400829        7.5010531172
  C        54.3019677109       16.1581920756        7.5009592351
  C        55.6749010206       16.1586323393        7.5008284235
  C        58.5831151960       16.1627356363        7.5004639452
  C        59.9569078672       16.1617177968        7.5002026248
  C        62.8783781391       16.1906439690        7.4995798534
  C        64.2629132250       16.1715993858        7.4992374504
  H        15.1818576159       17.1095180051        7.5028398064
  H        17.6139370998       17.1612478297        7.5020086918
  H        19.5492072822       17.1314500389        7.5013178708
  H        21.9109586602       17.1322330828        7.5006998813
  H        23.8319437889       17.1288071006        7.5002906249
  H        26.1901970487       17.1285238262        7.5000393848
  H        28.1140639657       17.1280973018        7.5000027421
  H        30.4720434714       17.1279656456        7.5000864299
  H        32.3967648999       17.1280395223        7.5002630718
  H        34.7546726337       17.1281134392        7.5004786103
  H        36.6794735206       17.1283614953        7.5006616434
  H        39.0375823788       17.1284198469        7.5008289860
  H        40.9622348939       17.1284507361        7.5009520802
  H        43.3203385000       17.1284795455        7.5010401849
  H        45.2451193723       17.1283026924        7.5011455800
  H        47.6030137470       17.1283319992        7.5011889112
  H        49.5277089429       17.1283499978        7.5012971551
  H        51.8856699201       17.1286109787        7.5012565034
  H        53.8094999988       17.1291581764        7.5012718172
  H        56.1677417695       17.1295960247        7.5010548954
  H        58.0887019976       17.1331525598        7.5008666892
  H        60.4504468741       17.1325591242        7.5004288391
  H        62.3857013608       17.1625021490        7.5000314208
  H        64.8177834431       17.1109650459        7.4994188892
  H        15.1822164354        7.8890356896        7.5013411185
  H        17.6142927209        7.8375003631        7.5005261199
  H        19.5495524148        7.8674494529        7.4999122794
  H        21.9112948140        7.8668496139        7.4993323346
  H        23.8322514271        7.8704121511        7.4990272474
  H        26.1904932085        7.8708522932        7.4988278020
  H        28.1143265605        7.8714005860        7.4988797628
  H        30.4722919850        7.8716594809        7.4990061712
  H        32.3969806634        7.8716778544        7.4992286147
  H        34.7548779135        7.8717067403        7.4994480429
  H        36.6796577297        7.8715324334        7.4996115052
  H        39.0377620100        7.8715590572        7.4997465032
  H        40.9624158122        7.8715856411        7.4997643815
  H        43.3205239641        7.8716542170        7.4997737290
  H        45.2453215235        7.8718945943        7.4996682822
  H        47.6032241289        7.8719744819        7.4995897408
  H        49.5279513296        7.8720449137        7.4994079600
  H        51.8859255472        7.8719141328        7.4992086107
  H        53.8097956374        7.8714810951        7.4989005230
  H        56.1680478837        7.8711993946        7.4985249875
  H        58.0890326276        7.8677794957        7.4980350643
  H        60.4507850438        7.8685488164        7.4974735864
  H        62.3860548867        7.8387607810        7.4968760395
  H        64.8181337669        7.8904842552        7.4962300700
  H        13.9488034819       14.9493250528        7.5029187409
  H        65.7223066247       12.5010659134        6.6129075601
  H        14.2771341705       12.4993879724        6.6177344118
  H        14.2777689592       12.4990990757        8.3870919956
  H        13.9489998892       10.0491409989        7.5021143933
  H        65.7227850817       12.5004525186        8.3822674791
  H        66.0509990627       14.9508680038        7.4983551649
  H        66.0511872470       10.0506806691        7.4966356897
     224
 i =        2, E =      -985.6732898128
  C        15.0528832301       10.0320025382        7.5017175254
  C        15.7300243283        8.8076550789        7.5012974900
  C        17.1134048874        8.8083266318        7.5008363842
  C        17.8604154696       10.0081284552        7.5007804409
  C        19.3045189239       10.0227298709        7.5003611533
  C        20.0440153826        8.8187427778        7.4999402240
  C        21.4152762436        8.8253152805        7.4996164109
  C        22.1486219042       10.0339946247        7.4996502437
  C        23.5856250998       10.0339323914        7.4994149045
  C        24.3253977743        8.8276617386        7.4991407348
  C        25.6959777097        8.8264019042        7.4990124771
  C        26.4335510810       10.0334968290        7.4991868900
  C        27.8692776725       10.0337630228        7.4991686841
  C        28.6084651341        8.8275389361        7.4990304250
  C        29.9787203839        8.8271081707        7.4991095997
  C        30.7169454626       10.0338548697        7.4993185392
  C        32.1523364994       10.0339089631        7.4994323972
  C        32.8907991376        8.8272928682        7.4993824370
  C        34.2610425893        8.8271915145        7.4995056294
  C        34.9995397267       10.0337590099        7.4997074456
  C        36.4348996869       10.0339750879        7.4998285057
  C        37.1734978538        8.8274306807        7.4997387458
  C        38.5437309777        8.8273486683        7.4998273245
  C        39.2823477847       10.0338686328        7.4999807043
  C        40.7177426652       10.0338951133        7.5000212367
  C        41.4564060144        8.8274022088        7.4998980020
  C        42.8266409554        8.8275300489        7.4998801146
  C        43.5651966340       10.0340990653        7.5000738872
  C        45.0005605438       10.0339387966        7.4999981076
  C        45.7391187583        8.8274076955        7.4998338725
  C        47.1093648045        8.8275648511        7.4997552563
  C        47.8477747526       10.0342130148        7.4999485737
  C        49.2831713532       10.0342279597        7.4998661747
  C        50.0214733457        8.8275263413        7.4995767118
  C        51.3917309267        8.8280290661        7.4994517552
  C        52.1308624398       10.0342894773        7.4996505253
  C        53.5665944342       10.0341097662        7.4994716292
  C        54.3042531360        8.8270659204        7.4990773841
  C        55.6748360413        8.8284219279        7.4988576796
  C        56.4145401523       10.0347359902        7.4990522425
  C        57.8515467481       10.0349051704        7.4987494210
  C        58.5849792890        8.8262808288        7.4982342346
  C        59.9562430586        8.8198187237        7.4979003104
  C        60.6956658396       10.0238516509        7.4980798019
  C        62.1397722672       10.0093661562        7.4977020112
  C        62.8868687905        8.8096192176        7.4970978638
  C        64.2702502109        8.8090607919        7.4967162611
  C        64.9473012771       10.0334561104        7.4969547720
  C        14.9306095113       12.4992651371        7.5021458952
  C        15.7306268597       11.2406213724        7.5016867090
  C        17.1485986034       11.2456778763        7.5012139773
  C        17.8615985731       12.4993945449        7.5011604064
  C        19.2728620224       12.4994409040        7.5007860952
  C        19.9995833070       11.2605373852        7.5003400109
  C        21.4325833313       11.2626145027        7.5000203077
  C        22.1512035159       12.4995500741        7.5000290922
  C        23.5728806980       12.4996041194        7.4997927895
  C        24.2926526206       11.2647356738        7.4995248949
  C        25.7246128988       11.2643578287        7.4993776193
  C        26.4408280179       12.4996969821        7.4995334475
  C        27.8616781705       12.4997434776        7.4994798897
  C        28.5773940211       11.2643858796        7.4993540873
  C        30.0086631875       11.2644887600        7.4994158971
  C        30.7241555132       12.4998201032        7.4996159777
  C        32.1449109538       12.4998522670        7.4997104890
  C        32.8604755696       11.2645835509        7.4996526671
  C        34.2916959882       11.2646239409        7.4997650253
  C        35.0071530957       12.4999149627        7.4999786732
  C        36.4279045945       12.4999460441        7.5000851466
  C        37.1431579267       11.2645536701        7.5000018732
  C        38.5743628752       11.2646297147        7.5000974407
  C        39.2896275224       12.4999934483        7.5002644549
  C        40.7103643047       12.5000159135        7.5003317217
  C        41.4256825087       11.2646807721        7.5001995158
  C        42.8568879130       11.2646515269        7.5001943690
  C        43.5720886641       12.5000714341        7.5004057802
  C        44.9928394494       12.5000960135        7.5003829925
  C        45.7083515119       11.2648349953        7.5002245696
  C        47.1395747826       11.2648569846        7.5001767065
  C        47.8550854364       12.5001549349        7.5003619706
  C        49.2758407408       12.5001923865        7.5003571349
  C        49.9913943428       11.2648967323        7.5000545704
  C        51.4226673081       11.2648698204        7.4999687532
  C        52.1383152405       12.5002657690        7.5001955456
  C        53.5591663276       12.5003114767        7.5000594658
  C        54.2754577069       11.2650176772        7.4996852168
  C        55.7074205042       11.2654875959        7.4994793610
  C        56.4271116453       12.5004025281        7.4997167251
  C        57.8487892709       12.5004581818        7.4994582800
  C        58.5674982840       11.2635793429        7.4989793057
  C        60.0004990284       11.2616005982        7.4986373620
  C        60.7271255894       12.5005603553        7.4988448383
  C        62.1383891379       12.5006218329        7.4985305192
  C        62.8514959094       11.2469683353        7.4979383775
  C        64.2694659778       11.2420209354        7.4975536847
  C        65.0693811865       12.5007265179        7.4977990458
  C        15.0526994740       14.9665465982        7.5025169527
  C        15.7305220887       13.7579731313        7.5020831841
  C        17.1484922584       13.7530488395        7.5016236142
  C        17.8602297030       14.9906432629        7.5015447004
  C        19.3043363102       14.9761526926        7.5011261107
  C        19.9994927113       13.7383970016        7.5007045228
  C        21.4324934192       13.7364272468        7.5003731872
  C        22.1484500091       14.9650989691        7.5003633591
  C        23.5854568947       14.9652724899        7.5000865442
  C        24.2925732583       13.7345193821        7.4998544797
  C        25.7245371483       13.7349908895        7.4997002422
  C        26.4333989817       14.9658986189        7.4998199816
  C        27.8691308829       14.9657202881        7.4997521058
  C        28.5773260133       13.7351398229        7.4996642949
  C        30.0085987336       13.7351147337        7.4996881369
  C        30.7168204652       14.9657847324        7.4998896663
  C        32.1522169123       14.9657997884        7.4999783105
  C        32.8604146762       13.7351550691        7.4999249676
  C        34.2916380577       13.7351748917        7.5000404455
  C        34.9994279811       14.9660704101        7.5002430953
  C        36.4347922114       14.9659140574        7.5003750611
  C        37.1431070452       13.7353656782        7.5002781245
  C        38.5743127115       13.7353312001        7.5003827855
  C        39.2822522693       14.9661164149        7.5005713816
  C        40.7176480275       14.9661388944        7.5006468772
  C        41.4256331554       13.7353774077        7.5005163868
  C        42.8568369895       13.7354648383        7.5005339700
  C        43.5650990203       14.9660414991        7.5007529244
  C        45.0004597840       14.9662501529        7.5007637169
  C        45.7083028702       13.7353844198        7.5006081340
  C        47.1395229953       13.7354244836        7.5006088113
  C        47.8476572900       14.9661031469        7.5008201690
  C        49.2830480991       14.9661562073        7.5008248355
  C        49.9913320670       13.7355240814        7.5005559777
  C        51.4226019235       13.7356238447        7.5005074545
  C        52.1307200088       14.9662462877        7.5007643717
  C        53.5664452055       14.9665147046        7.5006822452
  C        54.2753796489       13.7356506481        7.5003135224
  C        55.7073397870       13.7352709660        7.5001479832
  C        56.4143716000       14.9660714725        7.5003973192
  C        57.8513754806       14.9660130820        7.5002152122
  C        58.5674123969       13.7373915236        7.4996916860
  C        60.0004126351       13.7394674369        7.4994391237
  C        60.6954795836       14.9772745993        7.4996456493
  C        62.1395832763       14.9918744950        7.4993627330
  C        62.8514065838       13.7543284452        7.4987712695
  C        64.2693781571       13.7593798639        7.4984068703
  C        64.9471113302       14.9680049596        7.4986645643
  C        15.7297385856       16.1909486977        7.5024857920
  C        17.1131201478       16.1903817974        7.5020078156
  C        20.0437493728       16.1801906619        7.5010463984
  C        21.4150139630       16.1737209713        7.5006850022
  C        24.3251576634       16.1715893776        7.5001305560
  C        25.6957404900       16.1729436123        7.4999732496
  C        28.6082623270       16.1719806600        7.4999178222
  C        29.9785202725       16.1724872723        7.4999553477
  C        32.8906305351       16.1724464253        7.5001984451
  C        34.2608768798       16.1726066342        7.5003171285
  C        37.1733561422       16.1724783980        7.5005714839
  C        38.5435911647       16.1726101993        7.5006747606
  C        41.4562581528       16.1726620766        7.5008348931
  C        42.8264930538       16.1725791721        7.5008846349
  C        45.7389515438       16.1728194315        7.5009977549
  C        47.1091950387       16.1727178984        7.5010187243
  C        50.0212748955       16.1729015620        7.5010765151
  C        51.3915295506       16.1724690509        7.5010495230
  C        54.3040192531       16.1736085800        7.5009563283
  C        55.6745994598       16.1723429959        7.5008391219
  C        58.5847193358       16.1746919789        7.5004529665
  C        59.9559802474       16.1812594305        7.5002257271
  C        62.8865916282       16.1916767206        7.4995840102
  C        64.2699718293       16.1923528847        7.4992359937
  H        15.1745296838       17.1390455614        7.5028451476
  H        17.6461204787       17.1531086645        7.5019962662
  H        19.5107933515       17.1420114368        7.5013275871
  H        21.9472551864       17.1360839644        7.5006882194
  H        23.7943363396       17.1346276100        7.5002911971
  H        26.2294997638       17.1346914314        7.5000361604
  H        28.0755830270       17.1339913401        7.4999993283
  H        30.5108683371       17.1346418310        7.5000864027
  H        32.3581842198       17.1345377296        7.5002582743
  H        34.7934832496       17.1346145003        7.5004809335
  H        36.6409026991       17.1345619436        7.5006579923
  H        39.0761128334       17.1346733801        7.5008330961
  H        40.9237009995       17.1347062704        7.5009528916
  H        43.3589111269       17.1346818474        7.5010398109
  H        45.2063011698       17.1348033665        7.5011451614
  H        47.6416023493       17.1348314479        7.5011902408
  H        49.4888729911       17.1350264946        7.5012984024
  H        51.9241592245       17.1345071437        7.5012561291
  H        53.7701918131       17.1353184650        7.5012787822
  H        56.2053528334       17.1354178792        7.5010508593
  H        58.0523923317       17.1370075971        7.5008754023
  H        60.4888574485       17.1431227909        7.5004239179
  H        62.3535203500       17.1543647016        7.5000370298
  H        64.8251160793       17.1404869440        7.4994279258
  H        15.1748825356        7.8595195571        7.5013395643
  H        17.6464761013        7.8456387957        7.5005159363
  H        19.5111368448        7.8568798988        7.4999173616
  H        21.9476026157        7.8629993564        7.4993216341
  H        23.7946392018        7.8645897931        7.4990282483
  H        26.2298012059        7.8646899364        7.4988230675
  H        28.0758381231        7.8655002394        7.4988775985
  H        30.5111235692        7.8649841302        7.4990067011
  H        32.3583935360        7.8651792668        7.4992229232
  H        34.7936930904        7.8652083905        7.4994510255
  H        36.6410847928        7.8653251541        7.4996118159
  H        39.0762943899        7.8653082905        7.4997475522
  H        40.9238843051        7.8653386970        7.4997624039
  H        43.3590932374        7.8654461393        7.4997769423
  H        45.2065114943        7.8653997818        7.4996665932
  H        47.6418105507        7.8654726129        7.4995896157
  H        49.4891256287        7.8653709768        7.4994093537
  H        51.9244113508        7.8660189347        7.4992076255
  H        53.7704932200        7.8653185337        7.4989054939
  H        56.2056551572        7.8653818386        7.4985216264
  H        58.0527317282        7.8639207279        7.4980495812
  H        60.4891955270        7.8579964054        7.4974616873
  H        62.3538703388        7.8468914847        7.4968891677
  H        64.8254607925        7.8609647339        7.4962176890
  H        13.9508426849       14.9464351699        7.5029151854
  H        65.7384825185       12.5010641592        6.6101204248
  H        14.2609250149       12.4993954572        6.6149181069
  H        14.2615877932       12.4991070599        8.3898844386
  H        13.9510237270       10.0520343594        7.5021105639
  H        65.7389905365       12.5004509348        8.3850830923
  H        66.0489700083       14.9479710631        7.4983568657
  H        66.0491584464       10.0535698064        7.4966427423
     224
 i =        3, E =      -985.6747387592
  C        15.0428744457       10.0250565568        7.5017237285
  C        15.7372367660        8.8091775106        7.5012912140
  C        17.1210994682        8.8035744255        7.5008285530
  C        17.8509346205       10.0134902033        7.5007935575
  C        19.2962607419       10.0241129538        7.5003360350
  C        20.0405217212        8.8216742245        7.4999536574
  C        21.4125828810        8.8227162608        7.4996058200
  C        22.1465104109       10.0314416337        7.4996693098
  C        23.5842730801       10.0337304293        7.4994236525
  C        24.3242946426        8.8267110953        7.4991301303
  C        25.6954000775        8.8267639230        7.4990280540