     224
 i =       26, E =      -989.9804612728
  C        14.9736598157       10.0174650743        7.5013218486
  C        15.6711552995        8.8025549417        7.5010096544
  C        17.0543585884        8.8044272083        7.5005815546
  C        17.7823135135       10.0141685383        7.5005232388
  C        19.2281798796       10.0267700039        7.5001947435
  C        19.9709559839        8.8230033884        7.4998503541
  C        21.3433717832        8.8250097305        7.4996481377
  C        22.0784035199       10.0336745383        7.4996901259
  C        23.5178460596       10.0348939378        7.4995469855
  C        24.2596562522        8.8282186575        7.4992472451
  C        25.6318610702        8.8282617008        7.4991709946
  C        26.3719356556       10.0358021888        7.4993765013
  C        27.8105125451       10.0373374318        7.4993856776
  C        28.5524774183        8.8311286485        7.4991789181
  C        29.9240075565        8.8320625597        7.4992273237
  C        30.6664477355       10.0397269937        7.4994845786
  C        32.1037496305       10.0397254385        7.4995676135
  C        32.8220391451        8.8188686764        7.4995222454
  C        34.1896153887        8.7992364206        7.4996090999
  C        34.9509514982        9.9922879157        7.4997294604
  C        36.3753541726        9.9458477414        7.4998113092
  C        37.1583680336        8.7767206377        7.4997617089
  C        38.5437466062        8.8380180214        7.4998310698
  C        39.2789505048       10.0439625510        7.4998729897
  C        40.7248726907       10.0470784428        7.4999555935
  C        41.4677381101        8.8372007469        7.4998676463
  C        42.8429103573        8.8283699067        7.4998875154
  C        43.6048375690       10.0269501635        7.5000048414
  C        45.0423581772       10.0288431984        7.4999804167
  C        45.7840399786        8.8226964303        7.4998372851
  C        47.1561934818        8.8244188602        7.4998105670
  C        47.8958322929       10.0331315738        7.4998970447
  C        49.3343077336       10.0343232850        7.4998383739
  C        50.0758048841        8.8274322043        7.4996240607
  C        51.4477566903        8.8277952598        7.4995293926
  C        52.1881942612       10.0353244494        7.4996577200
  C        53.6268455249       10.0355312139        7.4995595279
  C        54.3671017072        8.8283079669        7.4992017666
  C        55.7391274216        8.8286793030        7.4990591579
  C        56.4799021360       10.0358115977        7.4992460473
  C        57.9191938703       10.0347914512        7.4990166637
  C        58.6540275877        8.8260782236        7.4985618997
  C        60.0263481920        8.8240623999        7.4983145096
  C        60.7688762086       10.0279358993        7.4986113626
  C        62.2146293387       10.0154248483        7.4982893084
  C        62.9424206229        8.8056428859        7.4977278090
  C        64.3255834089        8.8037148873        7.4973562135
  C        65.0230884975       10.0186455301        7.4975515330
  C        14.8582232869       12.4993256825        7.5016912605
  C        15.6518789277       11.2288435103        7.5012823540
  C        17.0709213874       11.2502329889        7.5008419035
  C        17.7935811398       12.4994013588        7.5008126395
  C        19.2030377805       12.4994353361        7.5005198602
  C        19.9301146354       11.2578937172        7.5001751883
  C        21.3634039676       11.2619901352        7.5000038687
  C        22.0838956537       12.4995110416        7.5000301656
  C        23.5037926603       12.4995501782        7.4999133975
  C        24.2263512900       11.2640023738        7.4996863105
  C        25.6597102269       11.2644311067        7.4996161895
  C        26.3796955653       12.4996308097        7.4997258140
  C        27.8003276173       12.4996736680        7.4997233619
  C        28.5215110435       11.2660013865        7.4995729070
  C        29.9555310322       11.2677002298        7.4995958778
  C        30.6793634928       12.4997606319        7.4997804691
  C        32.1054370153       12.4998052369        7.4998093854
  C        32.8271299648       11.2657201366        7.4997243822
  C        34.2678351975       11.2556646734        7.4998189912
  C        34.9853067216       12.4998901033        7.4999011256
  N        36.3810072482       12.4999293386        7.4999796396
  B        37.1171488664       11.2426009957        7.4998956292
  N        38.5743094311       11.2461162362        7.4999707605
  B        39.3000755619       12.5000058759        7.5000687111
  C        40.7889340281       12.5000446352        7.5001430400
  C        41.4720256019       11.2659748773        7.5000436619
  C        42.9040433517       11.2573386660        7.5000758215
  C        43.6155342649       12.5001188913        7.5002412626
  C        45.0367649656       12.5001570657        7.5002519104
  C        45.7521327228       11.2622134819        7.5001091317
  C        47.1852306059       11.2628980977        7.5000942369
  C        47.9040196101       12.5002349723        7.5002555970
  C        49.3245167408       12.5002744521        7.5001895866
  C        50.0442662109       11.2642990175        7.5000075975
  C        51.4774650739       11.2644069430        7.4999158199
  C        52.1973501803       12.5003528361        7.5000881722
  C        53.6174863542       12.5003919062        7.5000602458
  C        54.3377925207       11.2648388890        7.4996992300
  C        55.7710673405       11.2647715805        7.4996043448
  C        56.4934815802       12.5004666980        7.4998399669
  C        57.9132354046       12.5005023834        7.4996639399
  C        58.6338617896       11.2631021113        7.4993234020
  C        60.0670206006       11.2590447944        7.4990522367
  C        60.7939937979       12.5005746929        7.4993206471
  C        62.2033453556       12.5006068306        7.4989993826
  C        62.9259607525       11.2514669498        7.4985199914
  C        64.3449492961       11.2300793645        7.4981390631
  C        65.1384915297       12.5006784410        7.4983037482
  C        14.9735307287       14.9811909254        7.5020091248
  C        15.6518110222       13.7698481480        7.5015944846
  C        17.0708542006       13.7485307851        7.5011760042
  C        17.7821826377       14.9846281861        7.5011579375
  C        19.2280481498       14.9720965516        7.5007977330
  C        19.9300485923       13.7410115206        7.5005086897
  C        21.3633369655       13.7369894943        7.5002824162
  C        22.0782700102       14.9653411043        7.5003053028
  C        23.5177092110       14.9642014957        7.5001309899
  C        24.2262829818       13.7351345072        7.4999571312
  C        25.6596407969       13.7347872615        7.4998987627
  C        26.3717947094       14.9634574420        7.4999004485
  C        27.8103703479       14.9620081657        7.4998966444
  C        28.5214398976       13.7333872208        7.4998234137
  C        29.9554595088       13.7317764834        7.4998297346
  C        30.6663041323       14.9597929422        7.4999497168
  C        32.1036069296       14.9598840502        7.5000123962
  C        32.8270594807       13.7339325683        7.4999261308
  C        34.2677650645       13.7440744130        7.5000273139
  C        34.9508112078       15.0074909948        7.5001358633
  C        36.3752129384       15.0540096358        7.5002217956
  B        37.1170799929       13.7572968872        7.5001132446
  N        38.5742415233       13.7538569869        7.5001518618
  C        39.2788188693       14.9560474754        7.5003670037
  C        40.7247418308       14.9530075575        7.5004207857
  C        41.4719599561       13.7341505663        7.5002962454
  C        42.9039772322       13.7428617214        7.5003708670
  C        43.6047055264       14.9732877582        7.5005651003
  C        45.0422261064       14.9714725581        7.5006335592
  C        45.7520662013       13.7381398919        7.5004387179
  C        47.1851643018       13.7375333816        7.5004417214
  C        47.8956995119       14.9673389351        7.5006730849
  C        49.3341746910       14.9662272296        7.5006542512
  C        50.0441996003       13.7362902521        7.5004321762
  C        51.4773990309       13.7362615092        7.5003794959
  C        52.1880623650       14.9653837921        7.5006074147
  C        53.6267147733       14.9652549603        7.5005766245
  C        54.3377280224       13.7359852082        7.5002426655
  C        55.7710036400       13.7361279719        7.5001460206
  C        56.4797743551       14.9651263580        7.5004272587
  C        57.9190688491       14.9662206817        7.5002427198
  C        58.6337984912       13.7379432224        7.4999335434
  C        60.0669582442       13.7420717783        7.4996988800
  C        60.7687514870       14.9732173666        7.4999240824
  C        62.2145049295       14.9857941439        7.4996012922
  C        62.9258969105       13.7497833788        7.4992261997
  C        64.3448849093       13.7712395329        7.4988143269
  C        65.0229651657       14.9827077558        7.4989916864
  C        15.6709638046       16.1961392689        7.5019811656
  C        17.0541680405       16.1943362982        7.5015540823
  C        19.9707601256       16.1759005727        7.5008110242
  C        21.3431749784       16.1739649498        7.5005591700
  C        24.2594483924       16.1709182858        7.5000920792
  C        25.6316518505       16.1709544129        7.5000099637
  C        28.5522620577       16.1682607965        7.4999350831
  C        29.9237915668       16.1674114663        7.4999561573
  C        32.8218261557       16.1807829514        7.5001469516
  C        34.1894024296       16.2004972867        7.5002264312
  C        37.1581670311       16.2231775786        7.5004359382
  C        38.5435494519       16.1619524076        7.5004704063
  C        41.4675437106       16.1629244158        7.5006522307
  C        42.8427154205       16.1718276965        7.5007374326
  C        45.7838426434       16.1776596627        7.5008491222
  C        47.1559957322       16.1760117008        7.5008768620
  C        50.0756059672       16.1731596006        7.5009288624
  C        51.4475583552       16.1728733137        7.5009082209
  C        54.3669073914       16.1725184145        7.5008396954
  C        55.7389340782       16.1722203812        7.5007427950
  C        58.6538421125       16.1749730066        7.5004704704
  C        60.0261633032       16.1770559485        7.5002806841
  C        62.9422385296       16.1956079344        7.4997806623
  C        64.3254002653       16.1976017342        7.4994148995
  H        15.1215765597       17.1473253642        7.5023422505
  H        17.5864806741       17.1532873125        7.5015807195
  H        19.4461993489       17.1392190378        7.5010253188
  H        21.8711610970       17.1353370872        7.5006079339
  H        23.7343604226       17.1339650724        7.5001634918
  H        26.1575577650       17.1336106879        7.4999868329
  H        28.0276305620       17.1316510619        7.4999535378
  H        30.4458010067       17.1316311863        7.4999927685
  H        32.2789246942       17.1335704932        7.5002206585
  H        34.7158174685       17.1641549911        7.5003334008
  H        36.6945690972       17.2228059727        7.5005584842
  H        39.1030651405       17.1035412221        7.5006560316
  H        40.9460804028       17.1280036878        7.5007859988
  H        43.3567126701       17.1412432464        7.5009230099
  H        45.2556973016       17.1395058273        7.5010252154
  H        47.6833415495       17.1378315734        7.5010601532
  H        49.5500535999       17.1359706114        7.5011612767
  H        51.9735541160       17.1354554288        7.5011221471
  H        53.8410200767       17.1351432733        7.5011179272
  H        56.2643152883       17.1350558851        7.5009787077
  H        58.1256883014       17.1362251594        7.5007375458
  H        60.5505997795       17.1404156222        7.5004359198
  H        62.4096492707       17.1544026688        7.5000959472
  H        64.8745728039       17.1489002724        7.4995099907
  H        15.1218168836        7.8513405102        7.5010828423
  H        17.5867189461        7.8455024612        7.5003609215
  H        19.4464442242        7.8596581018        7.4998121198
  H        21.8714096834        7.8636659685        7.4994197190
  H        23.7346230530        7.8651419426        7.4990682539
  H        26.1578231100        7.8656361547        7.4989317959
  H        28.0279038726        7.8677069592        7.4989815614
  H        30.4460758412        7.8678750042        7.4990577131
  H        32.2791930344        7.8660499087        7.4994194388
  H        34.7160879363        7.8356105358        7.4995631650
  H        36.6948211087        7.7770687270        7.4997088342
  H        39.1033112331        7.8964583647        7.4997894821
  H        40.9463255001        7.8720938730        7.4997946918
  H        43.3569574336        7.8589804767        7.4998384747
  H        45.2559472726        7.8608209199        7.4997511316
  H        47.6835900627        7.8626263843        7.4996749618
  H        49.5503066824        7.8645912184        7.4995101778
  H        51.9738051069        7.8652415847        7.4993534074
  H        53.8412671099        7.8656541020        7.4990544465
  H        56.2645595003        7.8658714380        7.4987911231
  H        58.1259235655        7.8647986828        7.4982809092
  H        60.5508313484        7.8607281727        7.4979021304
  H        62.4098770775        7.8468228452        7.4975253650
  H        64.8748026178        7.8524435120        7.4968502866
  H        13.8728247099       14.9762098553        7.5023812468
  H        65.8173464859       12.5009471093        6.6172623682
  H        14.1787592143       12.4994263213        6.6211108526
  H        14.1793920041       12.4991878640        8.3827636155
  H        13.8729535770       10.0223895783        7.5016942254
  H        65.8178347261       12.5004458300        8.3789643069
  H        66.1236541209       14.9779184809        7.4986743618
  H        66.1237772770       10.0234893738        7.4972160614
